22,nelements,Formula,Spacegroup,Bandgap (meV),Is gap direct?,Discovery process,Decomposition energy (meV/atom),Exfoliation energy (meV/atom),Obtained from
2dm-5669,3,FeSeCl7,P1,1245,TRUE,top-down,0,50,mp-28189
2dm-5673,3,SrLaBr5,P2_1/m,3207,FALSE,top-down,48,81,mp-756439
2dm-5674,3,Sn7(SBr5)2,P1,1967,FALSE,top-down,79,,mp-674324
2dm-5675,3,CaV4O10,Pmm2,567,FALSE,top-down,225,,mvc-16060
2dm-5676,3,Cu2WO4,P-1,1656,FALSE,top-down,96,72,mp-505402
2dm-5679,3,LiFeF5,Pbcm,873,TRUE,top-down,86,,mp-778062
2dm-5682,3,Sn4SF6,Pmn2_1,3270,FALSE,top-down,53,55,mp-1013750
2dm-5684,3,RbSb2F7,P2_1/c,4301,TRUE,top-down,0,,mp-557260
2dm-5689,3,Sb(PO3)4,P2_1,255,FALSE,top-down,85,,mp-504350
2dm-5690,3,Ti2ZnS5,Pmmn,888,FALSE,top-down,381,,mvc-14774
2dm-5691,3,TiZnF5,P2_1/c,1952,TRUE,top-down,112,,mvc-3422
2dm-5700,3,LiVF4,P-1,1936,FALSE,top-down,222,,mp-776679
2dm-5703,3,K2HgCl4,P2_1/m,2643,FALSE,top-down,70,92,mp-571661
2dm-5704,3,Te6MoBr3,P-1,1122,FALSE,top-down,3,,mp-622262
2dm-5706,3,Hg4P2O7,P2/c,2888,TRUE,top-down,31,205,mp-29710
2dm-5707,3,Sn2P3O10,P2_1/m,0,FALSE,top-down,112,62,mp-26944
2dm-5708,3,SnBrCl,P4/nmm,1888,TRUE,top-down,90,118,mp-989194
2dm-5709,3,Pb3SO6,Pmma,2943,TRUE,top-down,74,96,mp-22577
2dm-5710,3,HoIO,P-3m1,2452,TRUE,top-down,68,39,mp-753163
2dm-5711,3,LiSbO2,P2/c,2603,FALSE,top-down,8,62,mp-755703
2dm-5713,3,AgBi2F12,P-1,363,FALSE,top-down,0,31,mp-28965
2dm-5714,3,In(IO3)3,P-3,3516,FALSE,top-down,42,126,mp-23559
2dm-5716,3,Nb4IrSe10,P-1,0,FALSE,top-down,38,,mp-675326
2dm-5718,3,YCrF5,Pmmm,0,FALSE,top-down,665,645,mvc-3449
2dm-5720,3,LiWF6,P2_1/c,3470,FALSE,top-down,0,24,mp-763437
2dm-5721,3,Tm(HO)3,P2_1/c,4333,FALSE,top-down,64,67,mp-754355
2dm-5723,3,VZnF5,P-1,1165,FALSE,top-down,296,344,mvc-14333
2dm-5725,3,LuPS4,P2_1/c,2269,TRUE,top-down,0,62,mp-30287
2dm-5727,3,MgW4O9,P4/n,1781,TRUE,top-down,579,437,mvc-10730
2dm-5728,3,KBiF4,Cm,825,FALSE,top-down,223,139,mp-676778
2dm-5730,3,Hg3Se3O10,P2_1,2343,TRUE,top-down,37,119,mp-542115
2dm-5733,3,HoBiO3,P-3,3338,FALSE,top-down,201,289,mp-754300
2dm-5735,3,Te2OsCl12,P-1,0,FALSE,top-down,24,44,mp-28866
2dm-5738,3,MgTi4O9,P4/n,2748,FALSE,top-down,199,142,mvc-10067
2dm-5739,3,Mg(HO)2,P-3m1,3545,TRUE,top-down,8,57,mp-30247
2dm-5740,3,PbSeO4,P2_1/c,3487,FALSE,top-down,0,137,mp-22342
2dm-5741,3,TaTe5Pt,Pmma,0,FALSE,top-down,0,70,mp-14815
2dm-5743,3,Nb2SiTe4,Pbam,520,FALSE,top-down,0,80,mp-29072
2dm-5744,3,Ge5(Te4As)2,P-3m1,322,FALSE,top-down,19,25,mp-28487
2dm-5746,3,Li2Cu2F7,P2_1,0,FALSE,top-down,107,52,mp-867561
2dm-5748,3,ZnSnO2,P-1,1970,FALSE,top-down,189,6,mvc-2430
2dm-5749,3,Mn2OF4,Pmn2_1,667,FALSE,top-down,72,52,mp-764303
2dm-5751,3,V3(HO2)4,Cm,1435,FALSE,top-down,271,,mp-625930
2dm-5752,3,TeAuI,P2_1/c,1094,FALSE,top-down,0,89,mp-27741
2dm-5753,3,TeCF2,P-1,1614,FALSE,top-down,636,54,mp-28836
2dm-5756,3,ZnCr4O9,P4/n,747,FALSE,top-down,287,103,mvc-10455
2dm-5761,3,ZnCrF5,P2/c,3473,FALSE,top-down,102,120,mvc-14214
2dm-5763,3,Na(NO)2,P1,0,FALSE,top-down,375,,mp-675301
2dm-5770,3,CuSeO3,P2_1/c,134,FALSE,top-down,36,,mp-22688
2dm-5771,3,Pb3SO6,P-1,2773,FALSE,top-down,54,96,mp-559143
2dm-5772,3,CuPO3,P2_1/c,1214,TRUE,top-down,94,,mp-766856
2dm-5776,3,ZnNi2S5,P2_1/m,0,FALSE,top-down,282,211,mvc-12967
2dm-5777,3,Tl2SO3,P2_1/c,2966,FALSE,top-down,106,54,mp-690541
2dm-5778,3,Mn4ZnO9,P4/n,0,FALSE,top-down,384,118,mvc-10587
2dm-5779,3,Zn2(PS3)3,C2/m,1701,TRUE,top-down,0,67,mp-27656
2dm-5780,3,CuMoF6,P-1,0,FALSE,top-down,73,,mp-611706
2dm-5783,3,CuTe2O5,P2_1/c,411,FALSE,top-down,82,129,mp-27548
2dm-5784,3,AlBiCl6,P2_1/c,3998,FALSE,top-down,0,93,mp-672273
2dm-5786,3,ZnFeF5,P2/c,3226,TRUE,top-down,96,121,mvc-14222
2dm-5787,3,VOF3,P2_1/c,3579,FALSE,top-down,0,38,mp-565784
2dm-5788,3,V4S9Br4,P4/nmm,650,FALSE,top-down,0,57,mp-559911
2dm-5789,3,ReBiO5,P2_1/c,2667,FALSE,top-down,58,,mvc-8758
2dm-5791,3,Ag2WS4,P2_1/m,926,FALSE,top-down,40,59,mp-990091
2dm-5793,3,VSeO4,P2_1/c,2683,FALSE,top-down,38,,mp-541250
2dm-5795,3,CaSnO2,P-1,373,FALSE,top-down,256,26,mvc-4668
2dm-5797,3,Yb2Te5O13,P-1,1987,FALSE,top-down,0,,mp-683904
2dm-5798,3,Tl2Ge2Se5,C2,2082,FALSE,top-down,59,217,mp-540818
2dm-5799,3,NdVSb3,Pbcm,0,FALSE,top-down,271,75,mp-673854
2dm-5800,3,VO2F,P2_1/c,2724,TRUE,top-down,50,,mp-767806
2dm-5802,3,Hg2TeBr3,P2_1/c,2297,FALSE,top-down,18,,mp-570125
2dm-5803,3,PbSeO3,P2_1/c,3370,FALSE,top-down,24,,mp-630329
2dm-5804,3,LiV2F9,P-1,2045,FALSE,top-down,50,,mp-775357
2dm-5807,3,Li2Cr4O13,P2_12_12,1643,FALSE,top-down,30,30,mp-773145
2dm-5808,3,AgRuF7,P2_1/c,0,FALSE,top-down,0,31,mp-17588
2dm-5810,3,Ag2PdCl4,Pmna,1246,FALSE,top-down,43,,mp-28557
2dm-5811,3,Al2CuCl8,P2_1/c,557,TRUE,top-down,4,61,mp-23434
2dm-5812,3,VZnF5,P2_1/c,1012,TRUE,top-down,321,,mvc-3742
2dm-5815,3,Tl3BiI6,P2_1/c,2469,FALSE,top-down,16,,mp-571219
2dm-5816,3,Sc6C2I11,P-1,386,FALSE,top-down,0,78,mp-541102
2dm-5817,3,Ge3Bi2O9,P-6,3925,FALSE,top-down,149,249,mp-29218
2dm-5822,3,Pt(NCl)4,P4/mmm,0,FALSE,top-down,1561,111,mp-1078720
2dm-5827,3,Pb2CO6,P3m1,0,FALSE,top-down,598,57,mp-1079073
2dm-5829,3,MnOF,Pmmm,0,FALSE,top-down,130,202,mp-775621
2dm-5831,3,CuSi2P3,Pm,0,FALSE,top-down,64,24,mp-674984
2dm-5832,3,Ce(SiAu2)2,P4/mmm,0,FALSE,top-down,,370,mp-569496
2dm-5833,3,CaMnSn,P4/nmm,0,FALSE,top-down,360,228,mp-20233
2dm-5834,3,SrMnGe,P4/nmm,0,FALSE,top-down,234,112,mp-1077230
2dm-5835,3,LaTe2Se,P4/nmm,0,FALSE,top-down,0,44,mp-4034
2dm-5838,3,MnNiO3,P-3,1405,FALSE,top-down,562,699,mp-19331
2dm-5839,3,Li2Fe3F8,P-3m1,3484,TRUE,top-down,99,58,mp-776732
2dm-5842,3,Zn(Mo3O8)2,P3m1,591,FALSE,top-down,239,,mvc-15081
2dm-5843,3,LiFe2F7,P2_1/m,3573,FALSE,top-down,101,36,mp-777447
2dm-5848,3,CaPbI4,P2_1/c,2455,FALSE,top-down,109,,mp-755943
2dm-5851,3,MoAs2O7,P2_1/c,2882,FALSE,top-down,4,,mp-505127
2dm-5852,3,CaTeO3,P2_1,3369,FALSE,top-down,73,97,mp-17008
2dm-5854,3,HfFeCl6,P312,94,FALSE,top-down,18,70,mp-28220
2dm-5857,3,ZrHCl,P-3m1,0,FALSE,top-down,73,33,mp-1024958
2dm-5858,3,NaTeF5,Pmc2_1,5331,FALSE,top-down,0,,mp-29355
2dm-5860,3,I(NO3)2,P-3,0,FALSE,top-down,263,28,mp-1080477
2dm-5861,3,Te(HO2)2,P2_1/c,1984,TRUE,top-down,22,,mp-625513
2dm-5862,3,Li2V3F8,P-3m1,2609,TRUE,top-down,97,,mp-778241
2dm-5864,3,V3CrO10,P-4m2,246,FALSE,top-down,,73,mp-849227
2dm-5868,3,BaNiSn3,P4mm,0,FALSE,top-down,445,,mp-11879
2dm-5870,3,Ag2SO3,P2_1/c,2936,TRUE,top-down,97,,mp-30982
2dm-5871,3,Mg(SbO2)2,P2_1,2845,TRUE,top-down,215,72,mvc-7254
2dm-5873,3,VBiO5,P2_1/c,0,FALSE,top-down,325,115,mvc-11632
2dm-5878,3,ZnTeO3,Pca2_1,3310,TRUE,top-down,132,,mp-16819
2dm-5880,3,BaH4O3,Pmc2_1,4138,TRUE,top-down,40,79,mp-23904
2dm-5883,3,NdPb8F19,Cm,3551,FALSE,top-down,59,,mp-675152
2dm-5884,3,BaSn4O7,P3m1,596,FALSE,top-down,531,177,mvc-1208
2dm-5889,3,AlCuF5,Pmmm,0,FALSE,top-down,427,465,mvc-13497
2dm-5890,3,KTeF5,Pbcm,5203,TRUE,top-down,0,,mp-4648
2dm-5894,3,HfTe3Se8,P-1,535,FALSE,top-down,151,93,mp-1097020
2dm-5895,3,ZnMoF5,P1,2198,FALSE,top-down,284,302,mvc-3081
2dm-5896,3,Na2Ti2O5,Pca2_1,2445,FALSE,top-down,,174,mp-773663
2dm-5897,3,MnPO4,P2_1/c,1674,FALSE,top-down,,,mp-697761
2dm-5899,3,NiPO4,P1,88,FALSE,top-down,344,,mp-32325
2dm-5901,3,KSb2F7,P2_1/c,4258,FALSE,top-down,9,,mp-27389
2dm-5902,3,KAs2F7,P2_1/c,4801,FALSE,top-down,0,,mp-28085
2dm-5903,3,Ge(PbS2)2,P2_1/c,1967,FALSE,top-down,40,128,mp-560370
2dm-5904,3,BaY3Cl11,Pmma,4026,FALSE,top-down,99,67,mp-769003
2dm-5905,3,Na2UI6,P3m1,39,FALSE,top-down,79,,mp-675122
2dm-5906,3,BaCO3,P2/m,2015,TRUE,top-down,284,352,mp-676020
2dm-5907,3,CuSeO3,P-1,0,FALSE,top-down,20,54,mp-560049
2dm-5909,3,BiOF,P2_1/c,3282,TRUE,top-down,104,98,mp-759750
2dm-5910,3,Mn3(SeO3)4,P-1,949,FALSE,top-down,42,40,mp-773614
2dm-5911,3,ZnWF5,P2/c,0,FALSE,top-down,355,,mvc-14226
2dm-5914,3,YBi3F15,P2_1/m,1171,FALSE,top-down,95,77,mvc-6273
2dm-5916,3,ZnFe4O9,P-1,0,FALSE,top-down,358,101,mvc-10697
2dm-5917,3,RbBiF4,P1,0,FALSE,top-down,182,145,mp-675881
2dm-5918,3,Cu2WO4,P-1,760,FALSE,top-down,228,40,mp-651311
2dm-5919,3,RbReCl4,Pmma,1160,TRUE,top-down,64,,mp-504957
2dm-5920,3,Sn4SI6,P2_1/m,1706,FALSE,top-down,0,97,mp-540644
2dm-5921,3,LiVF6,P2_1/c,3430,FALSE,top-down,63,86,mp-765938
2dm-5922,3,BiAuCl6,P-1,1002,FALSE,top-down,0,123,mp-567414
2dm-5924,3,As2WO7,P2_1/c,3272,FALSE,top-down,107,,mvc-7961
2dm-5926,3,Sb3O2F5,P2/c,3848,FALSE,top-down,35,,mp-541240
2dm-5927,3,Cu2WO4,P-1,901,TRUE,top-down,221,53,mp-683666
2dm-5928,3,Y(CuO2)3,P1,0,FALSE,top-down,347,198,mvc-15029
2dm-5929,3,Cu3OF5,P-1,0,FALSE,top-down,176,222,mp-997504
2dm-2991,2,C3N,Pmmm,0,FALSE,top-down,1788,87,mp-1014298
2dm-2992,2,GaN,P-6m2,2159,FALSE,top-down,354,66,mp-1007824
2dm-2993,2,LiB,Pmma,0,FALSE,top-down,650,687,mp-1080576
2dm-2995,2,Sb2Te3,P-3m1,661,FALSE,top-down,1029,81,mp-1201
2dm-2996,2,Dy2C,P-3m1,0,FALSE,top-down,204,,mp-12574
2dm-2998,2,LiMg,P-3m1,0,FALSE,top-down,189,150,mp-1094853
2dm-3000,2,VTe2,P-3m1,0,FALSE,top-down,22,98,mp-1008626
2dm-3001,2,H3W,P2_1/m,0,FALSE,top-down,93,31,mp-1079923
2dm-3002,2,TmTe3,P4/nmm,0,FALSE,top-down,0,,mp-1087512
2dm-3004,2,TiSe,P4/nmm,0,FALSE,top-down,303,94,mp-13152
2dm-3005,2,TbTe3,P4/nmm,0,FALSE,top-down,0,57,mp-1084847
2dm-3006,2,DySb2,C222,0,FALSE,top-down,568,85,mp-1018158
2dm-3012,2,BiS,C2/m,0,FALSE,top-down,289,11,mp-1064840
2dm-3013,2,PbS,P3m1,2228,FALSE,top-down,242,,mp-1057015
2dm-3014,2,SN,P4/nmm,0,FALSE,top-down,860,99,mp-1066821
2dm-3015,2,Mg2Sn,P6/mmm,0,FALSE,top-down,561,473,mp-1094196
2dm-3016,2,CoO2,Pmmm,0,FALSE,top-down,398,0,mp-1063268
2dm-3017,2,PdS2,P2_1/c,1215,FALSE,top-down,0,146,mp-13682
2dm-3019,2,NbS2,P-6m2,0,FALSE,top-down,3,92,mp-10033
2dm-3022,2,YMg2,Pmmn,0,FALSE,top-down,345,216,mp-1094495
2dm-3023,2,Al3Ru2,P4/mmm,0,FALSE,top-down,309,324,mp-1070580
2dm-3025,2,TcCl3,C2/m,199,FALSE,top-down,0,71,mp-1078708
2dm-3031,2,IrC2,C2/m,31,FALSE,top-down,1300,54,mp-1077889
2dm-3033,2,NbTe2,C2/m,0,FALSE,top-down,0,121,mp-11675
2dm-3035,2,NbTe2,P-3m1,0,FALSE,top-down,47,106,mp-1018150
2dm-3036,2,SrMg2,Pmma,0,FALSE,top-down,470,359,mp-1094279
2dm-3040,2,MgBi2,Pmma,0,FALSE,top-down,145,137,mp-1094878
2dm-3045,2,PbS,P4/nmm,1700,FALSE,top-down,60,137,mp-1078500
2dm-3048,2,CeI3,Pmmn,30,FALSE,top-down,0,98,mp-1025426
2dm-3049,2,PdN2,Pmmm,0,FALSE,top-down,81,83,mp-1019239
2dm-3050,2,Te2W,P-6m2,1061,TRUE,top-down,30,89,mp-1019322
2dm-3051,2,LiMg2,P-3m1,0,FALSE,top-down,139,104,mp-1094559
2dm-3052,2,U2S,P2/c,0,FALSE,top-down,945,,mp-1077525
2dm-3053,2,TePt,P-3m1,0,FALSE,top-down,43,145,mp-11693
2dm-3055,2,MgBi,Pmm2,0,FALSE,top-down,192,114,mp-1038761
2dm-3059,2,LuPb2,P4/mmm,0,FALSE,top-down,260,235,mp-11493
2dm-3060,2,LaTe3,P4mm,0,FALSE,top-down,299,84,mp-1025418
2dm-3061,2,NdB4,P4/mmm,0,FALSE,top-down,1146,480,mp-1097873
2dm-3062,2,SiS2,P2_1/c,3296,FALSE,top-down,25,72,mp-1095294
2dm-3064,2,US3,Pmmn,0,FALSE,top-down,0,57,mp-12406
2dm-3066,2,NpSe3,P2_1/m,0,FALSE,top-down,0,61,mp-1095184
2dm-3067,2,PrTe3,P4/nmm,0,FALSE,top-down,0,56,mp-12351
2dm-3070,2,Mg2Sn,P-3m1,0,FALSE,top-down,249,79,mp-1094228
2dm-3072,2,CaMg2,Pmmn,0,FALSE,top-down,422,364,mp-1094817
2dm-3073,2,PbSe,P4/nmm,1324,TRUE,top-down,76,140,mp-1063670
2dm-3078,2,CoO2,C2/m,0,FALSE,top-down,258,2,mp-1077196
2dm-3079,2,CN2,P-42_1m,4846,FALSE,top-down,364,51,mp-1019086
2dm-3080,2,DyTe3,Pmma,0,FALSE,top-down,351,46,mp-1025482
2dm-3082,2,NbS2,P4/mmm,0,FALSE,top-down,276,91,mp-1008860
2dm-3084,2,ZrSn,Pmmn,0,FALSE,top-down,468,81,mp-1094261
2dm-3085,2,AlN,P-6m2,2893,FALSE,top-down,510,499,mp-13178
2dm-3088,2,SnO,C2/m,2134,FALSE,top-down,139,68,mp-1078644
2dm-3089,2,B13P2,P-3m1,0,FALSE,top-down,965,31,mp-13862
2dm-3092,2,PbS,Pmm2,939,FALSE,top-down,282,207,mp-1079101
2dm-3093,2,FeO2,Pmmn,393,FALSE,top-down,240,51,mp-1097003
2dm-3098,2,LiBe,P2_1/m,0,FALSE,top-down,697,539,mp-1001825
2dm-3099,2,GaTe,P-6m2,1459,FALSE,top-down,8,58,mp-10009
2dm-3101,2,BPt2,P-6m2,0,FALSE,top-down,170,414,mp-1077788
2dm-3105,2,MgSb2,P2/m,0,FALSE,top-down,242,203,mp-1094547
2dm-3106,2,VTe2,C2/m,0,FALSE,top-down,12,115,mp-11687
2dm-3108,2,ReN2,P-6m2,94,FALSE,top-down,104,46,mp-1077299
2dm-3112,2,Na2Cl,Pmma,0,FALSE,top-down,233,44,mp-1077288
2dm-3113,2,SrMg2,P-6m2,0,FALSE,top-down,567,302,mp-1094457
2dm-3115,2,Mg3C,P4mm,189,FALSE,top-down,973,326,mp-1016240
2dm-3116,2,ThSe3,P2_1/m,1290,FALSE,top-down,0,59,mp-1079673
2dm-3117,2,LiTl,P-6m2,60,FALSE,top-down,753,617,mp-1078753
2dm-3121,2,MgSb2,C2/m,0,FALSE,top-down,187,114,mp-1094527
2dm-3123,2,Mg5Ti,Cm,0,FALSE,top-down,361,263,mp-1094486
2dm-3125,2,Mg2Ti,P-6m2,0,FALSE,top-down,431,301,mp-1094362
2dm-3126,2,DyTe3,P4/nmm,0,FALSE,top-down,0,,mp-1086673
2dm-3127,2,SbS,P-1,0,FALSE,top-down,177,10,mp-1065860
2dm-3128,2,MgTi2,Pmma,0,FALSE,top-down,412,313,mp-1094506
2dm-3131,2,ZrCd,P4/nmm,0,FALSE,top-down,249,306,mp-1017540
2dm-3132,2,TmTe3,Pmma,0,FALSE,top-down,330,46,mp-1025537
2dm-3134,2,CeMg2,Pmma,0,FALSE,top-down,313,294,mp-1039345
2dm-3137,2,In2Te3,P-3m1,0,FALSE,top-down,82,86,mp-1068510
2dm-3138,2,MgO2,C2/m,1060,FALSE,top-down,687,69,mp-1096803
2dm-3139,2,CrSe2,P-3m1,0,FALSE,top-down,11,113,mp-1009581
2dm-3140,2,ThGe2,P4/mmm,0,FALSE,top-down,671,657,mp-10128
2dm-3141,2,MgSn,P3m1,0,FALSE,top-down,183,81,mp-1094219
2dm-3142,2,ScF3,Pmc2_1,6086,FALSE,top-down,159,169,mp-1094067
2dm-3143,2,FeSe,Cmme,0,FALSE,top-down,539,-135,mp-1066497
2dm-3145,2,MgTi,Pmmn,0,FALSE,top-down,298,232,mp-1094383
2dm-3146,2,YMg2,Pmma,0,FALSE,top-down,372,,mp-1094454
2dm-3147,2,ZrCl3,C2/m,173,FALSE,top-down,51,73,mp-1100795
2dm-3149,2,W2N3,P-6m2,0,FALSE,top-down,149,46,mp-1079251
2dm-3150,2,MoS2,P-6m2,1653,TRUE,top-down,2,76,mp-2815
2dm-3155,2,Bi2O3,P3m1,2984,FALSE,top-down,277,353,mp-1091371
2dm-3156,2,C3N,Pmma,0,FALSE,top-down,508,73,mp-1014324
2dm-3159,2,CdO2,P-3m1,44,FALSE,top-down,453,145,mp-1096866
2dm-3160,2,SmGe2,P4/mmm,0,FALSE,top-down,725,719,mp-12750
2dm-3161,2,HfCd,P4/nmm,0,FALSE,top-down,221,296,mp-1007758
2dm-3164,2,TeO2,P4/nmm,1565,TRUE,top-down,570,57,mp-1077823
2dm-3166,2,MgSb3,Pmm2,0,FALSE,top-down,254,203,mp-1094513
2dm-3167,2,GeP,C2/m,1755,FALSE,top-down,0,79,mp-1095275
2dm-3168,2,TbGe2,P4/mmm,0,FALSE,top-down,694,658,mp-1071768
2dm-3171,2,CeMg2,C2/m,0,FALSE,top-down,300,292,mp-1039304
2dm-3172,2,MgTi,Pmmn,0,FALSE,top-down,333,188,mp-1094388
2dm-3173,2,CeSe2,Pmmm,737,FALSE,top-down,696,0,mp-1080294
2dm-3175,2,ZrN2,P-3m1,0,FALSE,top-down,1199,112,mp-1008600
2dm-3176,2,TePb,P4/nmm,1234,FALSE,top-down,77,146,mp-1079574
2dm-3180,2,EuS,P4/mmm,0,FALSE,top-down,186,3,mp-1072244
2dm-3182,2,LaMg5,Cm,0,FALSE,top-down,397,313,mp-1094186
2dm-3183,2,TiS2,P4/mmm,0,FALSE,top-down,433,91,mp-1008682
2dm-3184,2,MgTi,P4/nmm,0,FALSE,top-down,273,252,mp-1094342
2dm-3185,2,Nd2Te5,P4/nmm,0,FALSE,top-down,0,29,mp-1119
2dm-3187,2,CeMg5,Cm,0,FALSE,top-down,329,273,mp-1039088
2dm-3189,2,Y2C,P-3m1,0,FALSE,top-down,266,410,mp-1334
2dm-3194,2,ZrS2,P-3m1,1126,FALSE,top-down,0,89,mp-1186
2dm-3196,2,YbCl3,Pmmn,0,FALSE,top-down,98,118,mp-1025400
2dm-3198,2,YI,P-3m1,0,FALSE,top-down,96,60,mp-1065933
2dm-3200,2,Cd3As2,P-4m2,311,TRUE,top-down,201,,mp-1372
2dm-3202,2,YMg,P-3m1,0,FALSE,top-down,387,246,mp-1094870
2dm-3203,2,SnS2,P-3m1,1573,FALSE,top-down,3,81,mp-1170
2dm-3209,2,Sb2Te3,P2/c,1166,FALSE,top-down,1173,196,mp-1078904
2dm-3210,2,PbS,Pma2,2250,FALSE,top-down,187,114,mp-1078944
2dm-3213,2,CaMg,P3m1,0,FALSE,top-down,303,146,mp-1038862
2dm-3214,2,VS2,P-6m2,27,FALSE,top-down,0,78,mp-1013525
2dm-3215,2,NaI,P4/mmm,3863,FALSE,top-down,124,109,mp-1064979
2dm-3217,2,AgN,P4/nmm,0,FALSE,top-down,1547,164,mp-1091417
2dm-3218,2,MgTi,P3m1,0,FALSE,top-down,268,146,mp-1094499
2dm-3219,2,EuGe3,P-6m2,68,FALSE,top-down,683,3056,mp-1078610
2dm-3220,2,CdCl4,Pmna,284,FALSE,top-down,90,74,mp-1080124
2dm-3221,2,As2Se3,P2_1/m,714,FALSE,top-down,0,101,mp-1078443
2dm-3223,2,PdN,P-6m2,0,FALSE,top-down,1172,425,mp-1067644
2dm-3224,2,NiS2,P4/mmm,0,FALSE,top-down,559,125,mp-1094089
2dm-3228,2,HC,P-3m1,3489,TRUE,top-down,62,17,mp-1096986
2dm-3233,2,MgTi,P4/mmm,0,FALSE,top-down,286,122,mp-1094357
2dm-3236,2,ZnO2,P-3m1,228,FALSE,top-down,460,100,mp-1094003
2dm-3239,2,CeSe2,P4/nmm,0,FALSE,top-down,164,19,mp-1080340
2dm-3240,2,SiS,Pmna,501,TRUE,top-down,87,0,mp-1023900
2dm-3241,2,Bi2Pt,P31m,0,FALSE,top-down,97,181,mp-1078313
2dm-3242,2,CdS,P3m1,1677,TRUE,top-down,256,81,mp-1021511
2dm-3243,2,PdCl2,Pmna,921,FALSE,top-down,21,87,mp-1018891
2dm-3244,2,Al2Ru,P4/mmm,0,FALSE,top-down,638,615,mp-1009834
2dm-3245,2,ThCo5,P6/mmm,0,FALSE,top-down,2538,,mp-1072579
2dm-3251,2,VI2,P-3m1,1162,FALSE,top-down,0,83,mp-1018138
2dm-3256,2,HfTe5,Pmmn,0,FALSE,top-down,0,89,mp-1168
2dm-3262,2,MgBi2,C2/m,0,FALSE,top-down,109,101,mp-1039263
2dm-3263,2,In2Se3,P-3m1,492,FALSE,top-down,48,51,mp-1017565
2dm-3264,2,MgTi,Pmma,0,FALSE,top-down,257,49,mp-1094400
2dm-3265,2,CaC2,Cmme,0,FALSE,top-down,1051,82,mp-1071152
2dm-3266,2,HoTe3,P4/nmm,0,FALSE,top-down,0,57,mp-1078508
2dm-3268,2,HoTe3,Pmma,0,FALSE,top-down,345,46,mp-1025395
2dm-3270,2,TmSb2,C222,0,FALSE,top-down,525,95,mp-1018120
2dm-3272,2,LiC12,P6/mmm,0,FALSE,top-down,0,38,mp-1021323
2dm-3275,2,LuTe3,Pmma,0,FALSE,top-down,315,,mp-1025470
2dm-3276,2,HfTe3,Pmmn,0,FALSE,top-down,25,88,mp-1025459
2dm-3277,2,ZnO,P-6m2,1678,TRUE,top-down,231,59,mp-1017539
2dm-3278,2,PbS,Pmn2_1,2079,FALSE,top-down,128,273,mp-1091375
2dm-3279,2,Sr2N,P-3m1,0,FALSE,top-down,83,238,mp-1245
2dm-3281,2,ZnBi,P3m1,0,FALSE,top-down,614,509,mp-1064405
2dm-3282,2,MgSn,P-3m1,0,FALSE,top-down,214,114,mp-1094753
2dm-3283,2,MgSb,Pmm2,0,FALSE,top-down,381,261,mp-1094550
2dm-3284,2,Pb3N2,Pmmn,31,FALSE,top-down,376,110,mp-1080198
2dm-3287,2,PtSe2,P-3m1,1351,FALSE,top-down,0,88,mp-1115
2dm-3290,2,NbF4,P4/mmm,0,FALSE,top-down,83,97,mp-1416
2dm-3291,2,CeMg,Pmmn,0,FALSE,top-down,490,467,mp-1038788
2dm-3292,2,LuTe3,P4/nmm,0,FALSE,top-down,0,,mp-1080689
2dm-3296,2,MgSn2,P-6m2,0,FALSE,top-down,175,140,mp-1094241
2dm-3300,2,Mg2Fe,Pmma,0,FALSE,top-down,388,230,mp-1094145
2dm-3303,2,SrCu,P6/mmm,0,FALSE,top-down,75,180,mp-1025402
2dm-3305,2,NdGe5,Pmmm,0,FALSE,top-down,468,466,mp-1077156
2dm-3308,2,LaGe5,Pmmm,0,FALSE,top-down,463,496,mp-1025100
2dm-3309,2,Sn4Ir,Pban,0,FALSE,top-down,,301,mp-1080586
2dm-3315,2,H4W,P4/nmm,23,FALSE,top-down,16,25,mp-1078595
2dm-3320,2,LaMg2,C2/m,0,FALSE,top-down,427,331,mp-1094176
2dm-3323,2,NaN3,P2/m,891,FALSE,top-down,956,67,mp-1064272
2dm-3330,2,GeTe,Pmn2_1,930,FALSE,top-down,59,123,mp-1080459
2dm-3331,2,Mg2Ti,Pmma,0,FALSE,top-down,414,284,mp-1094344
2dm-3333,2,CuS,P3m1,0,FALSE,top-down,306,300,mp-1096941
2dm-3334,2,CeSe2,P-3m1,1118,FALSE,top-down,91,103,mp-1080337
2dm-3338,2,SnS,Pmmn,1875,FALSE,top-down,71,86,mp-1379
2dm-3339,2,TbGe5,Pmmm,0,FALSE,top-down,455,,mp-1071473
2dm-3341,2,MgSn,Pmmm,0,FALSE,top-down,493,487,mp-1094736
2dm-3342,2,LuSb2,C222,0,FALSE,top-down,498,90,mp-1008902
2dm-3344,2,YMg2,P-6m2,0,FALSE,top-down,437,321,mp-1094406
2dm-3345,2,ErSb2,C222,0,FALSE,top-down,540,93,mp-1018159
2dm-3347,2,RbO2,P4/mmm,0,FALSE,top-down,1825,,mp-12105
2dm-3348,2,CaMg,P-3m1,0,FALSE,top-down,379,218,mp-1039120
2dm-3351,2,PaP2,P4/mmm,0,FALSE,top-down,333,174,mp-1018890
2dm-3352,2,GeS2,P-4m2,1408,FALSE,top-down,57,92,mp-1071032
2dm-3354,2,MgGa2,P-6m2,0,FALSE,top-down,266,215,mp-1094641
2dm-3355,2,CeMg,P-3m1,0,FALSE,top-down,232,190,mp-1039083
2dm-3358,2,SmGe5,Pmmm,0,FALSE,top-down,464,452,mp-1072419
2dm-3361,2,Si2O,Cm,0,FALSE,top-down,1426,742,mp-1063118
2dm-3363,2,CaO,P4/nmm,2475,TRUE,top-down,210,10,mp-1079707
2dm-3364,2,IrI3,P-31m,1561,FALSE,top-down,0,91,mp-1025442
2dm-3366,2,LiP3,P-6m2,0,FALSE,top-down,683,139,mp-1025406
2dm-3368,2,MgSb,Pmm2,0,FALSE,top-down,307,101,mp-1094585
2dm-3369,2,YMg5,Cm,0,FALSE,top-down,342,288,mp-1100191
2dm-3371,2,CuF2,P2_1/c,461,FALSE,top-down,0,127,mp-1229
2dm-3372,2,AuN2,P2/m,0,FALSE,top-down,423,140,mp-1018648
2dm-3374,2,Ga2O3,P-62m,3151,TRUE,top-down,462,635,mp-1243
2dm-3377,2,NiTe,P-3m1,0,FALSE,top-down,43,125,mp-10264
2dm-3380,2,Mg2Rh,P4/mmm,0,FALSE,top-down,190,237,mp-12693
2dm-3381,2,LiO2,P-3m1,631,TRUE,top-down,971,143,mp-1094129
2dm-3386,2,TbSb2,C222,0,FALSE,top-down,581,,mp-1018127
2dm-3388,2,HgBr2,C2/m,2594,TRUE,top-down,0,,mp-23292
2dm-3390,2,HfGe2,P4/nmm,0,FALSE,top-down,296,,mp-13683
2dm-3391,2,HfSe3,Pmmn,360,FALSE,top-down,0,47,mp-15622
2dm-3396,2,YbCl3,C2/m,705,FALSE,top-down,112,164,mp-1025388
2dm-3397,2,CeS,P4/nmm,0,FALSE,top-down,331,8,mp-20560