22,nelements,Formula,Spacegroup,Bandgap (meV),Is gap direct?,Discovery process,Decomposition energy (meV/atom),Exfoliation energy (meV/atom),Obtained from
2dm-4834,2,CuO2,P-3m1,0,FALSE,top-down,163,72,mp-703914
2dm-4839,2,MnS2,P-3m1,0,FALSE,top-down,0,,mvc-14047
2dm-4844,2,VO2,C2/m,1052,FALSE,top-down,136,40,mvc-12615
2dm-4847,2,C3N4,C2,2266,FALSE,top-down,106,74,mp-971683
2dm-4856,2,YTe3,P4/nmm,0,FALSE,top-down,0,61,mp-945077
2dm-4858,2,V2O5,Pmmn,2458,FALSE,top-down,28,,mvc-11944
2dm-4861,2,AgI,P4/nmm,2079,TRUE,top-down,33,87,mp-567809
2dm-4876,2,SbO2,P-3m1,0,FALSE,top-down,392,104,mvc-12866
2dm-4881,2,BiBr3,P2_1/c,2521,FALSE,top-down,67,87,mp-610430
2dm-4882,2,TeO3,P-6m2,862,FALSE,top-down,702,48,mvc-14413
2dm-4883,2,Si3Ir,P-6m2,0,FALSE,top-down,1332,735,mp-29663
2dm-4891,2,Mg5Sc,Cm,0,FALSE,top-down,298,273,mp-973147
2dm-4903,2,BiS,P2/c,0,FALSE,top-down,236,10,mp-581693
2dm-4904,2,CuO,Pmc2_1,220,FALSE,top-down,172,68,mp-510752
2dm-4906,2,SnGe,P3m1,215,TRUE,top-down,492,0,mp-995181
2dm-4909,2,MoO2,P6/mmm,0,FALSE,top-down,2092,97,mvc-10952
2dm-4910,2,Mg2As,Pmmn,0,FALSE,top-down,459,,mp-978259
2dm-4912,2,SiP2,Pmc2_1,1536,FALSE,top-down,0,62,mp-9996
2dm-4915,2,WO2,C2/m,1947,FALSE,top-down,239,42,mvc-7369
2dm-4921,2,Fe3S4,P2_1/m,0,FALSE,top-down,183,31,mp-850032
2dm-4928,2,ZnSe,P4/nmm,2182,TRUE,top-down,161,84,mp-569679
2dm-4937,2,ZnS,P3m1,0,FALSE,top-down,212,,mp-557058
2dm-4945,2,K2S5,P2_1,1122,FALSE,top-down,84,,mp-672372
2dm-4948,2,CoI2,P-3m1,0,FALSE,top-down,19,88,mp-569610
2dm-4959,2,CrSe,P4/nmm,0,FALSE,top-down,127,102,mp-604915
2dm-4960,2,Sb3Pb,P-6m2,0,FALSE,top-down,626,,mp-973199
2dm-4963,2,CoBr2,P-3m1,43,FALSE,top-down,0,75,mp-30033
2dm-4965,2,YbI2,P-3m1,3982,FALSE,top-down,0,84,mp-570418
2dm-4970,2,TiO,P4/nmm,0,FALSE,top-down,179,-42,mp-685151
2dm-4972,2,CuI,P-3m1,2021,TRUE,top-down,1,64,mp-570136
2dm-4981,2,Ta2Se3,P2_1/m,0,FALSE,top-down,30,,mp-9983
2dm-4983,2,Al2Te3,P2_1/c,1810,FALSE,top-down,0,,mp-29502
2dm-4985,2,Al2Te5,C2/m,1457,FALSE,top-down,1,97,mp-9254
2dm-4991,2,BN,P-6m2,4662,FALSE,top-down,0,,mp-7991
2dm-4993,2,Mn3F8,P-1,1016,FALSE,top-down,78,46,mp-765332
2dm-4999,2,Er6I7,C2/m,0,FALSE,top-down,59,69,mp-571258
2dm-5005,2,Al2O3,Pc,3688,FALSE,top-down,208,186,mp-755066
2dm-5007,2,CuSe,P4/nmm,0,FALSE,top-down,71,117,mp-580226
2dm-5020,2,TmI2,P-3m1,0,FALSE,top-down,50,90,mp-29671
2dm-5027,2,CdCl2,C2,3666,TRUE,top-down,55,84,mp-632403
2dm-5035,2,NpI3,Pmmn,0,FALSE,top-down,0,97,mp-504781
2dm-5050,2,NiS2,P2_1/c,892,FALSE,top-down,0,140,mp-850131
2dm-5061,2,MoO3,Pc,1160,FALSE,top-down,387,58,mp-705538
2dm-5064,2,Ca5Ir,Pmc2_1,0,FALSE,top-down,31,282,mp-570356
2dm-5066,2,Al2S3,P1,757,TRUE,top-down,488,-1,mp-699208
2dm-5074,2,TiAu,P4/nmm,0,FALSE,top-down,250,341,mp-998972
2dm-5075,2,VBr2,P-3m1,1204,FALSE,top-down,0,,mp-971787
2dm-5083,2,Si3H,P-3m1,922,FALSE,top-down,25,24,mp-995193
2dm-5086,2,AgF2,P2_1/c,0,FALSE,top-down,66,150,mp-7715
2dm-5091,2,CrO2,C2/m,1020,FALSE,top-down,181,41,mvc-6931
2dm-5099,2,Cr3O7,Pmn2_1,354,TRUE,top-down,155,,mvc-9236
2dm-5106,2,AgCl,Pmma,983,FALSE,top-down,58,128,mp-570858
2dm-5108,2,Ti2O7,P-1,1196,FALSE,top-down,0,18,mp-656850
2dm-5116,2,SnSe,Pmn2_1,1147,FALSE,top-down,45,151,mp-691
2dm-5120,2,BaCu,P6/mmm,0,FALSE,top-down,123,169,mp-30428
2dm-5122,2,ZnH,P6mm,0,FALSE,top-down,660,355,mp-971820
2dm-5123,2,W3O8,P-1,2660,FALSE,top-down,152,56,mvc-671
2dm-5125,2,TlBr,P4/nmm,2914,FALSE,top-down,39,,mp-568949
2dm-5126,2,SnO2,P-3m1,2619,FALSE,top-down,158,86,mvc-11686
2dm-5127,2,WO3,P-6m2,0,FALSE,top-down,1233,69,mvc-11457
2dm-5133,2,NiSe,P4/nmm,0,FALSE,top-down,93,137,mp-571033
2dm-5138,2,ErTe3,Pmma,0,FALSE,top-down,337,50,mp-569701
2dm-5144,2,MoF5,Pmma,1420,TRUE,top-down,287,33,mvc-6391
2dm-5148,2,FeCl3,P-31m,395,FALSE,top-down,0,69,mp-583463
2dm-5151,2,SbF4,P422,2492,FALSE,top-down,176,56,mvc-15178
2dm-5153,2,VO2,P-1,1057,FALSE,top-down,137,41,mvc-13223
2dm-5155,2,GaTe,C2/m,1861,FALSE,top-down,0,73,mp-542812
2dm-5160,2,SbO2,P2_1/m,1437,FALSE,top-down,146,47,mvc-5746
2dm-5161,2,BiO2,P-3m1,0,FALSE,top-down,218,37,mvc-6945
2dm-5163,2,CoF4,P4/mbm,1699,FALSE,top-down,0,37,mvc-13941
2dm-5165,2,MoO2,C2/m,1082,FALSE,top-down,216,42,mvc-6948
2dm-5167,2,YCo,P6/mmm,0,FALSE,top-down,274,,mp-865373
2dm-5172,2,ZrF4,P4/mmm,4347,FALSE,top-down,132,0,mp-34260
2dm-5175,2,CrO3,P-6m2,0,FALSE,top-down,918,97,mvc-11097
2dm-5181,2,UTe3,Pmmn,0,FALSE,top-down,11,,mp-568948
2dm-5183,2,BiF5,Pmmm,0,FALSE,top-down,183,60,mvc-13496
2dm-5191,2,Sn3P4,C2,281,FALSE,top-down,125,-27,mp-684588
2dm-5198,2,V2O5,Pmmn,1507,FALSE,top-down,144,,mp-624689
2dm-5204,2,ZnBr2,P-3m1,3476,FALSE,top-down,88,71,mp-569960
2dm-5206,2,Nb3Cl8,P3m1,236,FALSE,top-down,0,72,mp-29950
2dm-5213,2,PtCl2,P-1,32,FALSE,top-down,300,59,mp-684670
2dm-5216,2,SbN,Pmn2_1,1854,FALSE,top-down,219,77,mvc-15384
2dm-5217,2,SbI3,P2_1/c,2109,FALSE,top-down,59,102,mp-569224
2dm-5221,2,TaF5,Pmmm,3439,FALSE,top-down,353,55,mvc-13836
2dm-5222,2,CrO3,P31m,753,TRUE,top-down,490,36,mvc-13999
2dm-5235,2,SnF3,P1,2455,FALSE,top-down,108,82,mvc-14464
2dm-5245,2,SnF4,P2/c,3315,TRUE,top-down,79,-21,mvc-13985
2dm-5247,2,Te2Pd,P-3m1,180,FALSE,top-down,0,201,mp-782
2dm-5258,2,TaS3,P2_1/m,0,FALSE,top-down,0,55,mp-30527
2dm-5264,2,Al2O3,P321,4834,FALSE,top-down,210,2,mp-985587
2dm-5268,2,BiF3,P-6m2,1795,FALSE,top-down,632,749,mp-685136
2dm-5274,2,TiO2,P2_1/m,1736,FALSE,top-down,528,570,mp-572822
2dm-5281,2,MnF4,P2_1/c,32,TRUE,top-down,59,48,mp-765921
2dm-5286,2,MnSe,P4/nmm,0,FALSE,top-down,32,82,mp-604910
2dm-5294,2,Si2Ru,P4/mmm,0,FALSE,top-down,736,,mp-7754
2dm-5299,2,PrGe5,Pmmm,0,FALSE,top-down,470,470,mp-981551
2dm-5303,2,V4O9,P4/n,3,FALSE,top-down,133,89,mvc-10961
2dm-5326,2,ZrS3,Pmmn,1127,FALSE,top-down,0,55,mp-9921
2dm-5328,2,MgCl2,Pmma,4574,TRUE,top-down,145,62,mp-571387
2dm-5329,2,BiBr3,P2_1/c,2948,FALSE,top-down,7,80,mp-752602
2dm-5339,2,Ba2Hg,P4/mmm,0,FALSE,top-down,168,247,mp-8094
2dm-5342,2,Pb2O3,P4/nmm,1814,FALSE,top-down,159,98,mp-608439
2dm-5343,2,Cr3O8,P2/m,0,FALSE,top-down,350,67,mvc-13706
2dm-5359,2,Te3As2,P-3m1,731,FALSE,top-down,23,76,mp-9897
2dm-5369,2,BiF5,Pmma,618,FALSE,top-down,124,35,mvc-6083
2dm-5370,2,Te2Mo,P-6m2,1056,TRUE,top-down,3,89,mp-602
2dm-5376,2,Mn2F7,P2_1,600,TRUE,top-down,20,10,mp-765268
2dm-5379,2,MnF3,C2/m,1480,FALSE,top-down,91,39,mp-765939
2dm-5390,2,InS,P2_1/c,1887,FALSE,top-down,343,,mp-630528
2dm-5396,2,Al2S3,P1,0,FALSE,top-down,527,-22,mp-643430
2dm-5398,2,SbO2,P2_1/m,1237,FALSE,top-down,148,34,mvc-14580
2dm-5400,2,Sb2O5,P2_1/c,1249,TRUE,top-down,272,,mp-771699
2dm-5407,2,Ta2I5,Cm,3,FALSE,top-down,440,29,mp-32554
2dm-5426,2,VF4,P2_1/c,1726,TRUE,top-down,30,32,mp-850937
2dm-5442,2,ZnS,P3m1,0,FALSE,top-down,219,13,mp-556485
2dm-5466,2,In2S3,P321,1906,TRUE,top-down,264,,mp-22375
2dm-5469,2,CeSi5,Pmmm,0,FALSE,top-down,607,585,mp-1072085
2dm-5476,2,WF5,Pmma,2385,TRUE,top-down,223,33,mvc-6392
2dm-5483,2,H5W,Pmma,0,FALSE,top-down,187,51,mp-1095646
2dm-5485,2,FeSe,P4/nmm,0,FALSE,top-down,0,85,mp-20311
2dm-5486,2,C3N,P2_1,0,FALSE,top-down,919,70,mp-1096864
2dm-5490,2,SiAs2,Pmc2_1,1344,FALSE,top-down,0,72,mp-978553
2dm-5495,2,MoO3,P-6m2,0,FALSE,top-down,983,68,mvc-11096
2dm-5497,2,Nb3I8,P3m1,293,FALSE,top-down,0,,mp-27772
2dm-5499,2,Si3N4,P-6m2,2014,TRUE,top-down,893,505,mp-40793
2dm-5500,2,UTe5,P2_1/m,2,TRUE,top-down,23,110,mp-28500
2dm-5503,2,GeP3,P-3m1,0,FALSE,top-down,246,349,mp-7542
2dm-5505,2,PuF3,P-6m2,0,FALSE,top-down,0,701,mp-8033
2dm-5507,2,AsI3,P-3,2170,FALSE,top-down,0,97,mp-23218
2dm-5509,2,NiS2,P-3m1,562,FALSE,top-down,32,63,mvc-11598
2dm-5516,2,BaSn2,P-3m1,0,FALSE,top-down,846,933,mp-567510
2dm-5517,2,BaSi2,P-3m1,0,FALSE,top-down,1563,1578,mp-7655
2dm-5523,2,FeS,P4/nmm,0,FALSE,top-down,0,83,mp-505531
2dm-5525,2,MgGa,P3m1,0,FALSE,top-down,204,123,mp-1094620
2dm-5529,2,Sn4Pd,P4/nbm,0,FALSE,top-down,151,239,mp-2128
2dm-5531,2,Bi2Pd,P4/mmm,0,FALSE,top-down,102,158,mp-570197
2dm-5533,2,YbBi2,Pmm2,329,TRUE,top-down,0,499,mp-1024947
2dm-5535,2,FeTe,P4/nmm,0,FALSE,top-down,86,90,mp-21273
2dm-5545,2,La2I5,P2_1/m,254,FALSE,top-down,0,,mp-30282
2dm-5550,2,NpTe3,Pmma,0,FALSE,top-down,355,53,mp-1025472
2dm-5552,2,ScSn3,P6/mmm,0,FALSE,top-down,668,691,mp-972889
2dm-5558,2,CeMg2,P-6m2,0,FALSE,top-down,289,291,mp-1039492
2dm-5569,2,ErTe3,P4/nmm,0,FALSE,top-down,0,57,mp-1078991
2dm-5579,2,UTe3,P4/nmm,0,FALSE,top-down,16,47,mp-22231
2dm-5582,2,HgBr2,P-3,2085,TRUE,top-down,45,81,mp-571558
2dm-5591,2,Gd2Br3,C2/m,149,FALSE,top-down,9,100,mp-618813
2dm-5593,2,FeBr2,P-3m1,0,FALSE,top-down,0,73,mp-22880
2dm-5601,2,Sb2O3,Pmmn,2527,FALSE,top-down,194,134,mp-560607
2dm-5624,2,Ta2O5,Pmmn,3984,FALSE,top-down,245,109,mvc-8453
2dm-5628,2,CuN6,Pmn2_1,0,FALSE,top-down,327,,mp-608366
2dm-5630,2,Te2Mo,P2_1/m,0,FALSE,top-down,21,87,mp-7459
2dm-5633,2,AcSe3,P6/mmm,0,FALSE,top-down,0,,mp-867800
2dm-5637,2,WBr2,P4/mbm,2421,FALSE,top-down,0,71,mp-29498
2dm-5639,2,Bi4I,P2/m,0,FALSE,top-down,76,102,mp-583234
2dm-5654,2,Cr3O8,C2/m,618,FALSE,top-down,47,41,mp-557959
2dm-5656,2,V2O5,P2_1,2352,TRUE,top-down,56,113,mp-776041
2dm-5668,2,La2Br5,P2_1/m,412,FALSE,top-down,0,,mp-28571
2dm-5671,2,VF4,P-3,1919,FALSE,top-down,38,,mp-766790
2dm-5686,2,Ta3I7,Pmna,964,TRUE,top-down,0,,mp-23238
2dm-5694,2,TaTe2,C2/m,0,FALSE,top-down,17,114,mp-1967
2dm-5705,2,Zn3P2,P-4m2,1453,TRUE,top-down,161,,mp-2071
2dm-5715,2,YI3,P-31m,2854,FALSE,top-down,0,92,mp-571442
2dm-5724,2,CeGe5,Pmmm,0,FALSE,top-down,409,495,mp-984703
2dm-5729,2,VF4,Pmmn,2315,TRUE,top-down,7,,mp-765215
2dm-5734,2,FeP4,P2_1/c,127,FALSE,top-down,388,,mp-27164
2dm-5737,2,Cr2O5,Pmmn,668,FALSE,top-down,99,28,mvc-8406
2dm-5745,2,Bi2S3,P2_1/m,1483,FALSE,top-down,0,146,mp-22856
2dm-5760,2,PdI2,P2_1/c,1189,FALSE,top-down,0,130,mp-27747
2dm-5765,2,SbO2,P1,707,FALSE,top-down,184,36,mvc-9819
2dm-5766,2,IO2,P2_1/c,1744,FALSE,top-down,30,87,mp-23170
2dm-5767,2,Mo2O5,Pmmn,1542,TRUE,top-down,108,,mvc-4607
2dm-5775,2,Sb2O3,Pmma,1513,TRUE,top-down,268,,mvc-400
2dm-5781,2,Tl2S,P3,1462,FALSE,top-down,25,108,mp-556516
2dm-5809,2,Au3F8,P2_1/c,622,FALSE,top-down,14,,mp-17407
2dm-5814,2,MoBr2,P4/mbm,2048,FALSE,top-down,0,77,mp-29555
2dm-5818,2,Fe3S4,P-6m2,0,FALSE,top-down,345,,mp-10188
2dm-5819,2,MgN8,P4/m,612,FALSE,top-down,1070,93,mp-1078930
2dm-5820,2,LaTe3,P4/nmm,0,FALSE,top-down,0,57,mp-1078612
2dm-5823,2,ThTe3,Pmmn,648,FALSE,top-down,0,70,mp-1025522
2dm-5824,2,SnP3,P-3m1,460,FALSE,top-down,196,314,mp-7541
2dm-5825,2,Sc2C,P-3m1,0,FALSE,top-down,337,423,mp-29941
2dm-5826,2,WO3,P3m1,3221,FALSE,top-down,490,60,mvc-13988
2dm-5828,2,ScCl3,P-31m,3843,FALSE,top-down,0,68,mp-23309
2dm-5830,2,Bi2Pt,P-3m1,0,FALSE,top-down,146,239,mp-569581
2dm-5837,2,FeBr3,P-31m,40,FALSE,top-down,0,81,mp-23232
2dm-5855,2,TeO3,P31m,975,TRUE,top-down,698,,mvc-14734
2dm-5856,2,V2O5,Pmn2_1,2617,FALSE,top-down,41,79,mp-775847
2dm-5863,2,CeTe3,P4/nmm,0,FALSE,top-down,0,62,mp-571571
2dm-5865,2,GdBr,P-3m1,0,FALSE,top-down,70,,mp-1064427
2dm-5866,2,Sn3Pd,P4/mbm,0,FALSE,top-down,135,168,mp-1371
2dm-5867,2,LaBr2,P-6m2,684,FALSE,top-down,9,,mp-28572
2dm-5872,2,Ge5F12,P2_1/c,4055,TRUE,top-down,18,,mp-27342
2dm-5879,2,Ta3Br7,Pmna,1268,TRUE,top-down,2,,mp-29412
2dm-5881,2,SnO2,P3m1,28,FALSE,top-down,348,,mvc-5236
2dm-5892,2,SbO2,P-1,2212,FALSE,top-down,287,,mvc-14911
2dm-5923,2,B2S3,P-1,2682,FALSE,top-down,0,,mp-572670
2dm-5925,2,CrO2,Cm,197,FALSE,top-down,232,81,mvc-5485
2dm-2990,1,O2,P4/mmm,0,FALSE,top-down,1519,72,mp-1056059
2dm-2994,1,Ga,Pmma,0,FALSE,top-down,236,,mp-10021
2dm-3020,1,P,Pm,1246,FALSE,top-down,64,,mp-1094075
2dm-3042,1,Ga,P4/mmm,0,FALSE,top-down,523,557,mp-140
2dm-3043,1,P,P-3m1,1967,FALSE,top-down,43,81,mp-130
2dm-3056,1,Sb,P4/mmm,0,FALSE,top-down,550,412,mp-10631
2dm-3058,1,Ca,Cmmm,0,FALSE,top-down,1339,1195,mp-1008498
2dm-3095,1,Ge,P-3m1,86,FALSE,top-down,484,296,mp-1067619
2dm-3103,1,B,P6/mmm,0,FALSE,top-down,708,77,mp-1055985
2dm-3120,1,Se,Pmma,0,FALSE,top-down,171,172,mp-1009757
2dm-3144,1,Pb,P-3m1,0,FALSE,top-down,149,183,mp-1057273
2dm-3153,1,Te,Pmma,0,FALSE,top-down,126,229,mp-1064307
2dm-3206,1,Bi,P2_1/m,84,FALSE,top-down,142,182,mp-1067758
2dm-3259,1,Ni,P-3m1,0,FALSE,top-down,620,-1,mp-1014111
2dm-3274,1,C,P4/mmm,0,FALSE,top-down,2605,30,mp-1097832
2dm-3312,1,As,P-3m1,1573,FALSE,top-down,0,155,mp-11
2dm-3356,1,Sb,P-3m1,1220,FALSE,top-down,48,242,mp-104
2dm-3365,1,Bi,Pbam,0,FALSE,top-down,455,,mp-1078637
2dm-3373,1,Br,P4/mmm,0,FALSE,top-down,171,155,mp-1010048
2dm-3404,1,P,Pmna,852,TRUE,top-down,42,109,mp-157
2dm-3447,1,As,Pmna,629,FALSE,top-down,47,134,mp-158
2dm-3737,1,Bi,P-3m1,556,TRUE,top-down,77,281,mp-23152
2dm-3993,1,C,P6/mmm,0,TRUE,top-down,2,67,mp-48
2dm-4058,1,Zn,P6/mmm,0,FALSE,top-down,,,mp-79
2dm-4069,1,Cd,P6/mmm,0,FALSE,top-down,254,,mp-94
2dm-4275,1,Sb,P2_1/m,0,FALSE,top-down,156,149,mp-567409
2dm-4442,1,Hg,P6/mmm,1547,FALSE,top-down,87,,mp-611219
2dm-4566,1,Bi,Pmma,0,FALSE,top-down,567,671,mp-569358
2dm-4714,1,I,Cmmm,0,FALSE,top-down,117,188,mp-601148
2dm-5000,1,Sr,Cmmm,0,FALSE,top-down,1170,1082,mp-567826
2dm-5082,1,C,Cmme,0,FALSE,top-down,1262,1277,mp-624889
2dm-5305,1,Te,P4/mmm,0,FALSE,top-down,171,211,mp-9924
2dm-5357,1,C,Cmmm,0,FALSE,top-down,938,19,mp-579909
2dm-5502,1,I,Pbam,982,FALSE,top-down,0,195,mp-23153
2dm-5522,1,Br,Pbam,1303,FALSE,top-down,0,162,mp-23154