22,nelements,Formula,Spacegroup,Bandgap (meV),Is gap direct?,Discovery process,Decomposition energy (meV/atom),Exfoliation energy (meV/atom),Obtained from
2dm-4503,3,Bi2TeSe2,P-3m1,1135,FALSE,top-down,39,69,mp-31406
2dm-4504,3,SrTcN3,P222_1,0,FALSE,top-down,566,,mp-989586
2dm-4505,3,V3(HO2)4,C2/m,0,FALSE,top-down,282,73,mp-625855
2dm-4507,3,AsAuO3,P2/c,1123,TRUE,top-down,123,83,mp-755240
2dm-4508,3,AlSiTe3,P-31m,1327,FALSE,top-down,0,80,mp-31220
2dm-4509,3,Fe(CoO3)2,C2/m,0,FALSE,top-down,109,61,mp-761530
2dm-4512,3,Ge2Sb2Te5,P-3m1,266,FALSE,top-down,590,,mp-3534
2dm-4517,3,Cu2WS4,P-42m,1594,FALSE,top-down,6,74,mp-8976
2dm-4518,3,CaSb2O5,Amm2,0,FALSE,top-down,362,95,mvc-8223
2dm-4520,3,Si(HgO2)2,C222,2598,FALSE,top-down,141,283,mp-779704
2dm-4522,3,Tl2Te2O5,P2_1/c,3130,TRUE,top-down,0,62,mp-29690
2dm-4523,3,Ca3SiBr2,Pmmm,799,FALSE,top-down,115,179,mp-568050
2dm-4524,3,UCO5,Pmm2,2229,FALSE,top-down,17,75,mp-555173
2dm-4525,3,Zr(MoO4)2,P-3m1,3202,FALSE,top-down,20,81,mp-510456
2dm-4527,3,TlFeS2,C2/m,0,FALSE,top-down,102,112,mp-3849
2dm-4529,3,CaCr4O9,P4/n,807,FALSE,top-down,329,168,mvc-10513
2dm-4532,3,CoBiO3,P4mm,0,FALSE,top-down,473,552,mp-557739
2dm-4537,3,VBr2O,Pmmm,408,TRUE,top-down,13,64,mp-32450
2dm-4538,3,Sr(ClO2)2,P4/nbm,2819,FALSE,top-down,165,57,mp-555474
2dm-4539,3,Mg(ReO4)2,P-3,4040,FALSE,top-down,0,64,mp-754311
2dm-4542,3,CuO2F,P222_1,841,FALSE,top-down,0,62,mp-997035
2dm-4543,3,Er2Te5O13,P-1,3065,FALSE,top-down,14,,mp-559304
2dm-4545,3,FeTeBr7,P1,1043,FALSE,top-down,0,57,mp-540998
2dm-4546,3,Tl4SnS3,P42_12,1017,TRUE,top-down,50,100,mp-9622
2dm-4547,3,ZnSb4O9,P4/n,0,FALSE,top-down,449,397,mvc-10219
2dm-4548,3,MgGeO3,Pmma,1774,FALSE,top-down,507,447,mp-3047
2dm-4549,3,Ca(SbO2)4,Pm,1810,FALSE,top-down,225,85,mvc-10699
2dm-4550,3,MgBi4O9,P2/c,1428,FALSE,top-down,152,181,mvc-10452
2dm-4551,3,Li3MnP2,P-4m2,0,FALSE,top-down,456,343,mp-676295
2dm-4554,3,BaH2O3,Pmc2_1,3046,FALSE,top-down,20,-39,mp-642653
2dm-4555,3,SbP2O7,P-1,11,FALSE,top-down,145,,mvc-5328
2dm-4556,3,Ni(HO)2,P-3m1,2217,TRUE,top-down,15,63,mp-32403
2dm-4558,3,HfNCl,P-3m1,3463,FALSE,top-down,0,34,mp-541911
2dm-4559,3,TiNiO3,P-3,2061,FALSE,top-down,493,605,mp-556251
2dm-4564,3,ScBrO,Pmmn,3322,FALSE,top-down,0,38,mp-546279
2dm-4565,3,Gd2CF2,P-3m1,698,FALSE,top-down,0,114,mp-8301
2dm-4568,3,V2CdO6,C2/m,2706,FALSE,top-down,206,,mp-561909
2dm-4569,3,Nb3IrS8,C2,0,FALSE,top-down,28,89,mp-675367
2dm-4570,3,Mo2HO6,P1,0,FALSE,top-down,93,,mp-626138
2dm-4571,3,NaAsO2,P2_1/c,4276,FALSE,top-down,1,39,mp-3468
2dm-4572,3,MgCr4O9,P4/n,816,FALSE,top-down,315,,mvc-10451
2dm-4577,3,LiFeO2,P3m1,905,TRUE,top-down,391,415,mp-774101
2dm-4579,3,Fe(CO3)2,P-3,0,FALSE,top-down,59,36,mp-769642
2dm-4580,3,LiMnF4,P2_1/c,1817,FALSE,top-down,87,80,mp-764975
2dm-4581,3,V2Cu2O7,P2/c,0,FALSE,top-down,212,227,mp-705670
2dm-4582,3,CaLaI5,Pmma,2124,TRUE,top-down,77,86,mp-755779
2dm-4583,3,BeCrO4,Pc,2515,TRUE,top-down,78,72,mp-772665
2dm-4584,3,La2PI2,P-3m1,0,FALSE,top-down,0,54,mp-571647
2dm-4585,3,Mn(CO3)2,P-3,1329,FALSE,top-down,67,,mp-768036
2dm-4587,3,Zn(InS2)2,P3m1,0,FALSE,top-down,76,,mp-560262
2dm-4589,3,SiH2O,Cm,0,FALSE,top-down,657,,mp-675098
2dm-4590,3,CuTeO4,P2/m,0,FALSE,top-down,25,125,mp-755455
2dm-4592,3,U(HO2)2,P2_1/c,1968,TRUE,top-down,125,56,mp-626169
2dm-4595,3,CoPS3,P-31m,0,FALSE,top-down,92,67,mp-676437
2dm-4599,3,MgSnO2,P1,1673,FALSE,top-down,190,,mvc-4767
2dm-4602,3,Cr(CoO3)2,P-31m,0,FALSE,top-down,270,60,mp-775117
2dm-4604,3,YWF5,Pmmm,363,FALSE,top-down,790,580,mvc-3451
2dm-4606,3,Nb2TeO8,P2/c,706,FALSE,top-down,170,32,mvc-20
2dm-4608,3,ZrNCl,P-3m1,2728,TRUE,top-down,0,34,mp-568592
2dm-4609,3,HfBrN,Pmmn,2164,TRUE,top-down,0,41,mp-568346
2dm-4610,3,DyBC,Pmma,0,FALSE,top-down,445,13,mp-9936
2dm-4612,3,HoBrO,P-3m1,4244,TRUE,top-down,0,37,mp-755565
2dm-4613,3,Cd3Se3O10,P2_1,3186,FALSE,top-down,66,138,mp-542117
2dm-4614,3,SrCO3,P2/m,1071,TRUE,top-down,519,612,mp-33746
2dm-4615,3,GaPS4,P2_1/c,2293,TRUE,top-down,0,74,mp-30979
2dm-4617,3,BSbO3,P-1,4283,FALSE,top-down,63,,mp-753806
2dm-4619,3,YNiF5,Pmmm,0,FALSE,top-down,682,557,mvc-3478
2dm-4620,3,LiAgF4,P2/m,679,FALSE,top-down,278,,mp-753209
2dm-4621,3,PPdSe,P2/c,1037,FALSE,top-down,0,82,mp-3123
2dm-4624,3,Ti(BiO3)2,P4mm,0,FALSE,top-down,490,291,mvc-14949
2dm-4628,3,MgV2O6,C2/m,2861,FALSE,top-down,339,447,mp-504510
2dm-4630,3,UTeN,P4/nmm,0,FALSE,top-down,0,76,mp-3402
2dm-4631,3,NdTe2Se,P4/nmm,0,FALSE,top-down,0,51,mp-4437
2dm-4633,3,CaCoO3,P4mm,0,FALSE,top-down,539,440,mvc-14243
2dm-4634,3,TmClO,Pmmn,5350,TRUE,top-down,38,40,mp-754113
2dm-4635,3,AgClO2,P2_1/m,186,FALSE,top-down,0,54,mp-997017
2dm-4636,3,Sn3(HO2)2,P-4,2878,FALSE,top-down,54,,mp-625541
2dm-4642,3,MgMn4O9,P4/n,158,FALSE,top-down,408,128,mvc-10566
2dm-4644,3,VH2O3,P2/c,1598,FALSE,top-down,87,114,mp-32449
2dm-4645,3,Ca2Bi10O17,Cm,1984,FALSE,top-down,81,38,mp-766275
2dm-4647,3,H2PbO2,Pmn2_1,3054,FALSE,top-down,145,83,mp-690727
2dm-4649,3,LiMnF4,Pmma,0,FALSE,top-down,159,123,mp-763006
2dm-4654,3,Li2H2Pd,P4/mmm,0,FALSE,top-down,51,109,mp-644389
2dm-4656,3,BaY3Br11,Pmma,3145,FALSE,top-down,124,66,mp-753942
2dm-4657,3,Ca(TiS2)8,P-3m1,0,FALSE,top-down,0,40,mvc-16026
2dm-4658,3,Ca(HO)2,P3m1,3913,TRUE,top-down,194,47,mp-626643
2dm-4659,3,Tl(MoO3)3,P2/m,555,TRUE,top-down,58,73,mp-558068
2dm-4661,3,V4ZnO10,Pmm2,933,FALSE,top-down,171,,mvc-16056
2dm-4663,3,LiAsO3,P-31m,3696,FALSE,top-down,11,110,mp-9657
2dm-4664,3,Th(TeI)2,C2/m,1458,FALSE,top-down,0,95,mp-542180
2dm-4665,3,Na(SnAs)2,P-3m1,0,FALSE,top-down,110,,mp-9378
2dm-4666,3,Sr(AlCl4)2,P2/c,5565,TRUE,top-down,11,54,mp-628726
2dm-4667,3,MgCr2O5,Pmmn,0,FALSE,top-down,499,,mvc-11394
2dm-4668,3,HfGeTe4,Pmn2_1,724,FALSE,top-down,0,93,mp-567817
2dm-4671,3,Si(PbS2)2,P2_1/c,2097,TRUE,top-down,0,,mp-504564
2dm-4676,3,Se2Cl2O5,P4/mmm,0,FALSE,top-down,529,,mvc-15968
2dm-4679,3,LiMnF3,P-31m,3910,FALSE,top-down,92,47,mp-763101
2dm-4680,3,Cu3OF5,P2_1,0,FALSE,top-down,58,76,mp-755255
2dm-4683,3,LiCuO2,P2/m,637,FALSE,top-down,73,161,mp-996987
2dm-4684,3,K(SbSe2)2,P-1,1365,FALSE,top-down,53,113,mp-9797
2dm-4686,3,ZnCo2S5,Pmmn,0,FALSE,top-down,319,,mvc-12859
2dm-4687,3,VOF,Pmmn,1633,FALSE,top-down,30,62,mp-764309
2dm-4688,3,NbBi7O13,P1,0,FALSE,top-down,242,137,mp-676325
2dm-4689,3,YTiF5,Pmmm,0,FALSE,top-down,745,499,mvc-15370
2dm-4691,3,Li2Nb4O11,C2/m,2538,FALSE,top-down,68,38,mp-756168
2dm-4692,3,Ag(TeMo)6,C2/m,0,FALSE,top-down,0,,mp-29607
2dm-4693,3,FeCo3O8,P-3m1,0,FALSE,top-down,82,56,mp-765922
2dm-4694,3,MgMo2O5,Pmmn,0,FALSE,top-down,680,413,mvc-8358
2dm-4696,3,Sb2TeSe2,P3m1,706,FALSE,top-down,341,78,mp-8612
2dm-4699,3,CdPS3,P-31m,2151,FALSE,top-down,2,66,mp-5328
2dm-4701,3,SbBrO,P4/nmm,1719,FALSE,top-down,31,52,mp-989189
2dm-4703,3,Hg(BiS2)2,C2/m,2103,FALSE,top-down,48,,mp-554921
2dm-4707,3,VOF3,P-1,1670,FALSE,top-down,64,,mp-777080
2dm-4709,3,Mg(AgO2)2,Pmma,0,FALSE,top-down,423,373,mvc-6082
2dm-4710,3,Nb2WO8,P2/c,2183,FALSE,top-down,200,30,mvc-486
2dm-4711,3,LiWCl6,P3,74,FALSE,top-down,17,75,mp-570512
2dm-4718,3,Ba2Co3O8,P4/mmm,0,FALSE,top-down,275,,mvc-1112
2dm-4719,3,YClO,P-3m1,4946,FALSE,top-down,0,33,mp-552120
2dm-4720,3,LiFeAs,P4/nmm,0,FALSE,top-down,105,149,mp-917215
2dm-4721,3,TiOF,Pmmn,0,FALSE,top-down,71,47,mp-753059
2dm-4723,3,HfTeSe4,P2/m,1100,TRUE,top-down,16,94,mp-989651
2dm-4724,3,AlHO2,Pmn2_1,3813,TRUE,top-down,45,86,mp-625054
2dm-4726,3,NbIrS4,P2/m,0,FALSE,top-down,103,89,mp-33670
2dm-4727,3,KNO3,Pmc2_1,3336,FALSE,top-down,67,77,mp-672644
2dm-4730,3,CaTi2O5,Pmmn,2904,FALSE,top-down,268,,mvc-12368
2dm-4732,3,PbBrCl,P4/nmm,2367,FALSE,top-down,159,283,mp-995147
2dm-4733,3,Lu2CCl2,P-3m1,1034,FALSE,top-down,0,41,mp-573376
2dm-4734,3,NbBr2O,Pmm2,835,FALSE,top-down,0,62,mp-550070
2dm-4735,3,CuHO2,Pmn2_1,742,FALSE,top-down,23,61,mp-996956
2dm-4738,3,LiFeF4,P-42m,4110,FALSE,top-down,145,156,mp-776710
2dm-4740,3,Ca(Bi2O3)2,Cm,0,FALSE,top-down,149,,mp-675592
2dm-4741,3,ScPS4,P-1,1903,FALSE,top-down,0,65,mp-6999
2dm-4742,3,MoP4O13,P1,1348,FALSE,top-down,77,45,mp-697734
2dm-4744,3,Ge4Te7As2,P-3m1,422,FALSE,top-down,19,33,mp-568730
2dm-4747,3,MgW2O5,Amm2,520,FALSE,top-down,558,111,mvc-8374
2dm-4748,3,ErCoSi2,P4/nmm,0,FALSE,top-down,390,,mp-3128
2dm-4749,3,YBrO,P-3m1,4309,FALSE,top-down,0,36,mp-754031
2dm-4750,3,AgNO3,P-6,2321,FALSE,top-down,17,136,mp-552185
2dm-4751,3,AlSbO3,P31m,1645,FALSE,top-down,433,88,mvc-3506
2dm-4754,3,NbOF2,Pmmm,0,FALSE,top-down,177,71,mp-752474
2dm-4756,3,TiNbS4,P2/m,0,FALSE,top-down,23,93,mp-34289
2dm-4757,3,Fe(CoO3)2,P-31m,252,FALSE,top-down,109,57,mp-765838
2dm-4758,3,NaSbO2,Pca2_1,3408,FALSE,top-down,0,10,mp-850814
2dm-4759,3,Mn2FeO6,P-31m,186,FALSE,top-down,96,56,mp-767120
2dm-4760,3,LiMnF5,P2_1,2372,FALSE,top-down,44,43,mp-764980
2dm-4761,3,Sr(SnAs)2,P-3m1,935,FALSE,top-down,0,115,mp-9379
2dm-4765,3,Mo(WO4)2,P-1,1926,TRUE,top-down,154,56,mvc-662
2dm-4768,3,Hf2Al4C5,P-3m1,0,FALSE,top-down,130,,mp-568991
2dm-4769,3,Zn(SbO2)2,Pmc2_1,865,FALSE,top-down,309,74,mvc-5544
2dm-4770,3,V2MoO8,Cmm2,1747,FALSE,top-down,59,,mp-561475
2dm-4771,3,BaMn4O8,P-31m,0,FALSE,top-down,312,29,mvc-1040
2dm-4772,3,Sr3Nb4O13,P4/mmm,996,FALSE,top-down,101,,mp-756435
2dm-4773,3,PbClF,P4/nmm,2902,TRUE,top-down,323,198,mp-613652
2dm-4775,3,AlSnF5,Pmmm,5,FALSE,top-down,551,589,mvc-13902
2dm-4776,3,InGeCl3,Cm,2740,TRUE,top-down,29,106,mp-998233
2dm-4777,3,Fe3(O2F)2,Pmmm,0,FALSE,top-down,139,,mp-780013
2dm-4779,3,PrTe2Se,P4/nmm,0,FALSE,top-down,0,52,mp-30125
2dm-4782,3,ZnGeO3,P-31m,2747,FALSE,top-down,143,191,mp-8285
2dm-4783,3,P2WO8,P2_1/m,2529,TRUE,top-down,0,,mp-687234
2dm-4784,3,Mg3(HO3)2,C2/m,2457,FALSE,top-down,221,52,mp-37315
2dm-4785,3,P4WO13,P1,2168,FALSE,top-down,56,,mp-761353
2dm-4786,3,Zn3(InS3)2,P3m1,0,FALSE,top-down,98,,mp-637614
2dm-4787,3,GeWO4,P2/c,2504,FALSE,top-down,190,52,mp-770578
2dm-4788,3,P2Pd3S8,P-3m1,1779,FALSE,top-down,0,82,mp-3006
2dm-4789,3,AlBiO3,P2_1/c,3289,FALSE,top-down,183,151,mp-775763
2dm-4790,3,GdBrO,P4/nmm,2965,TRUE,top-down,0,51,mp-29797
2dm-4791,3,Mg2Te3O8,C2,3433,TRUE,top-down,98,203,mp-769077
2dm-4792,3,Sr2Cu2O3,Cmmm,0,FALSE,top-down,637,,mp-8806
2dm-4795,3,B2(CN2)3,P321,2622,TRUE,top-down,176,,mp-989472
2dm-4796,3,SmBrO,P4/nmm,4691,TRUE,top-down,0,56,mp-29327
2dm-4797,3,AuO2F,P222_1,1332,FALSE,top-down,0,77,mp-997027
2dm-4798,3,Ca3Pb3I14,Pm,0,FALSE,top-down,,,mp-771827
2dm-4799,3,MnOF,Pmmn,0,FALSE,top-down,98,83,mp-764258
2dm-4800,3,Zn(AsO2)2,P2_1,3575,FALSE,top-down,9,42,mp-29509
2dm-4803,3,Hg3(BO3)2,P321,3406,FALSE,top-down,36,209,mp-4710
2dm-4804,3,BaTi4O8,P-31m,0,FALSE,top-down,212,15,mvc-610
2dm-4806,3,RbV4O10,Cmmm,0,FALSE,top-down,45,61,mp-764947
2dm-4808,3,PrIO,P4/nmm,3795,FALSE,top-down,0,51,mp-29254
2dm-4809,3,AgClO2,Cmme,1230,TRUE,top-down,344,49,mp-552169
2dm-4811,3,LuIO,P4/nmm,3304,FALSE,top-down,0,46,mp-973585
2dm-4815,3,Ni(PS3)2,P312,457,FALSE,top-down,94,69,mp-769218
2dm-4816,3,Bi14Te13S8,P-3,872,FALSE,top-down,17,60,mp-557619
2dm-4818,3,FeHO2,P3m1,1928,FALSE,top-down,160,141,mp-774147
2dm-4819,3,Bi2Te2Se,P-3m1,883,FALSE,top-down,0,69,mp-29666
2dm-4820,3,YbBrO,P4/nmm,0,FALSE,top-down,220,92,mp-601693
2dm-4824,3,LiSnCl3,P3,4401,TRUE,top-down,93,231,mp-998591
2dm-4826,3,Fe(Si2O3)2,P1,0,FALSE,top-down,792,280,mp-744274
2dm-4828,3,W(OF)2,Amm2,1726,FALSE,top-down,0,73,mp-764365
2dm-4831,3,LiVF3,Pmma,2106,FALSE,top-down,128,107,mp-765845
2dm-4832,3,YMnF5,Pmmm,384,FALSE,top-down,635,597,mvc-3272
2dm-4833,3,CeBrO,P4/nmm,0,FALSE,top-down,0,63,mp-754112
2dm-4836,3,Zn2Te3O8,C2,3344,TRUE,top-down,81,,mp-3502
2dm-4838,3,TlInS2,P2/m,0,FALSE,top-down,657,,mp-690644
2dm-4840,3,Ba2Co3O7,Pmmm,0,FALSE,top-down,270,18,mvc-1355
2dm-4841,3,GdSI,Pmmn,1588,FALSE,top-down,0,53,mp-556135
2dm-4842,3,As3HO6,P2_1,3828,FALSE,top-down,0,,mp-626378
2dm-4845,3,Ta2TeO8,P2/c,96,FALSE,top-down,252,33,mvc-2546
2dm-4846,3,YBrO,P4/nmm,4617,TRUE,top-down,4,49,mp-768906
2dm-4848,3,Ti3H2O7,Pm,2507,FALSE,top-down,129,85,mp-626558
2dm-4849,3,Bi2SeO5,Aem2,3014,FALSE,top-down,0,46,mp-29839
2dm-4850,3,Hg3Se4O5,P-1,2247,FALSE,top-down,0,63,mp-558456
2dm-4851,3,Te2SO7,Pmn2_1,3246,FALSE,top-down,36,104,mp-4906
2dm-4854,3,CdCu2O3,Pmmn,0,FALSE,top-down,262,,mp-754978
2dm-4857,3,NbFeTe2,Pmna,0,FALSE,top-down,25,82,mp-616481
2dm-4859,3,CuTe2Cl,P222_1,778,FALSE,top-down,0,125,mp-30971
2dm-4863,3,NiTeO4,P2/m,1514,TRUE,top-down,50,66,mp-774160
2dm-4864,3,V2H3O5,Cm,1036,FALSE,top-down,118,158,mp-625405
2dm-4865,3,YbSi2Ni,P4/nmm,0,FALSE,top-down,409,482,mp-972406
2dm-4867,3,Sn(PO3)2,Pc,4825,FALSE,top-down,32,17,mp-767076
2dm-4868,3,Ba(FeO2)4,P-31m,0,FALSE,top-down,227,27,mvc-10874
2dm-4869,3,AlTeCl7,P2_1,3400,FALSE,top-down,6,72,mp-573751
2dm-4872,3,NbNiTe5,Pmma,0,FALSE,top-down,0,78,mp-8999
2dm-4873,3,LiVF5,P4/n,2178,FALSE,top-down,79,83,mp-764694
2dm-4875,3,Mn2FeO6,C2/m,0,FALSE,top-down,96,63,mp-775033
2dm-4877,3,Zn(BH4)2,Pmc2_1,4522,FALSE,top-down,0,29,mp-604315
2dm-4878,3,V(WO4)2,P-1,1924,FALSE,top-down,146,48,mvc-688
2dm-4879,3,ZrSiSe,P4/nmm,0,FALSE,top-down,0,84,mp-4628
2dm-4880,3,AlHO2,P1,2777,FALSE,top-down,257,118,mp-625075
2dm-4884,3,Co3TeO8,P-3m1,0,FALSE,top-down,129,62,mp-765848
2dm-4885,3,Ag2SO4,C222,2149,FALSE,top-down,0,201,mp-5625
2dm-4888,3,Ti(GaO2)4,C2/m,1409,TRUE,top-down,127,,mp-553991
2dm-4889,3,MnAs2F12,P-4,4202,TRUE,top-down,16,120,mp-557038
2dm-4890,3,Al(HO)3,P1,4412,FALSE,top-down,65,81,mp-626435
2dm-4892,3,Li2CuF5,P2/m,367,FALSE,top-down,86,81,mp-762337
2dm-4893,3,Mg2Ni3O8,P2/m,976,FALSE,top-down,280,308,mvc-15503
2dm-4894,3,Ba2YI7,Pc,2546,TRUE,top-down,78,,mp-768426
2dm-4895,3,BiMoO5,P2_1/c,0,FALSE,top-down,192,,mvc-9130
2dm-4897,3,Li2Cr2O7,P-1,2703,FALSE,top-down,59,,mp-772318
2dm-4898,3,VO2F,Pc,1671,TRUE,top-down,57,128,mp-764277
2dm-4899,3,TiGeTe6,P2_1/m,412,FALSE,top-down,0,,mp-574169
2dm-4901,3,NaHO,Pm,2595,TRUE,top-down,88,70,mp-625996
2dm-4902,3,Ni(HO)2,P3m1,2943,FALSE,top-down,270,86,mp-625072
2dm-4905,3,Al(HO)3,P1,4453,FALSE,top-down,70,84,mp-554002
2dm-4907,3,NbCoTe2,P2_1/c,0,FALSE,top-down,7,78,mp-571471
2dm-4908,3,NaClO2,Cm,2437,TRUE,top-down,310,,mp-676673
2dm-4911,3,ErClO,Pmmn,5298,TRUE,top-down,0,40,mp-755689
2dm-4916,3,Li2CeP2,P-3m1,907,TRUE,top-down,110,179,mp-9912
2dm-4917,3,NdIO,P4/nmm,3765,FALSE,top-down,0,50,mp-755336
2dm-4919,3,Co3NiO8,P-3m1,1304,FALSE,top-down,36,,mp-765936
2dm-4922,3,ZnCr2S5,Pmmn,0,FALSE,top-down,308,,mvc-12716
2dm-4923,3,AgHO2,Cm,0,FALSE,top-down,42,126,mp-996958
2dm-4924,3,InTeCl,P2_1/c,1940,FALSE,top-down,0,105,mp-504630
2dm-4925,3,Cr(OF)2,P2_1/c,2701,FALSE,top-down,169,37,mp-606382
2dm-4927,3,VOF3,Pc,3106,TRUE,top-down,39,36,mp-764228
2dm-4929,3,AgSbS2,Pc,1971,TRUE,top-down,91,97,mp-627601
2dm-4930,3,FeBiO3,P1,2092,TRUE,top-down,451,82,mp-561070
2dm-4931,3,BSbO3,C2,3948,TRUE,top-down,62,65,mp-755829
2dm-4932,3,CaSn2F6,P-1,3986,FALSE,top-down,19,39,mp-30146
2dm-4933,3,Cu2HgI4,P2/m,416,TRUE,top-down,206,-72,mp-673698
2dm-4934,3,Mg4H2O5,P-3m1,2503,TRUE,top-down,21,26,mp-30242
2dm-4938,3,NaSbF4,P2_1/c,4528,FALSE,top-down,19,,mp-29269
2dm-4939,3,Li2NiO2,P-3m1,1747,TRUE,top-down,83,20,mp-778781
2dm-4940,3,LiVF4,P2/m,2234,TRUE,top-down,74,49,mp-766952
2dm-4942,3,CuSe2Br,P222_1,759,FALSE,top-down,0,99,mp-29567
2dm-4943,3,Hg4AsI5,P4/nbm,1203,TRUE,top-down,17,,mp-567798
2dm-4946,3,NbOF3,P-1,3557,FALSE,top-down,13,36,mp-753800
2dm-4947,3,Nd2BC,C2/m,0,FALSE,top-down,163,266,mp-864790
2dm-4949,3,Cr(PO4)2,P-1,0,FALSE,top-down,298,207,mp-767022
2dm-4950,3,FeCuS2,P3m1,0,FALSE,top-down,160,71,mp-753211
2dm-4951,3,Al(HO)3,P-1,4171,FALSE,top-down,74,73,mp-555462
2dm-4954,3,VOF3,Pc,2783,FALSE,top-down,25,52,mp-779943
2dm-4955,3,CaPbI4,P2/m,2979,FALSE,top-down,5,85,mp-753670
2dm-4956,3,CrOF,Pmmn,2349,TRUE,top-down,12,51,mp-764219
2dm-4957,3,In3SbTe2,P4/nmm,0,FALSE,top-down,364,-416,mp-676518
2dm-4958,3,LiAuI4,P-1,853,FALSE,top-down,0,100,mp-29520
2dm-4961,3,AgBrO4,P-4,1466,FALSE,top-down,65,137,mp-756342
2dm-4964,3,InSnCl3,Cm,2663,TRUE,top-down,40,94,mp-998560
2dm-4966,3,CrGeTe3,P-31m,484,FALSE,top-down,0,89,mp-541449
2dm-4967,3,SrH4O3,P1,3796,FALSE,top-down,83,61,mp-626750
2dm-4968,3,SmIO,P4/nmm,3724,FALSE,top-down,0,49,mp-754217
2dm-4971,3,CuHO2,Pmn2_1,0,FALSE,top-down,107,94,mp-996999
2dm-4973,3,CrBiO4,P2_1/c,1660,FALSE,top-down,101,122,mp-773333
2dm-4975,3,Nb2ReO8,P2/c,133,FALSE,top-down,264,30,mvc-13540
2dm-4978,3,Cd(PO3)2,P2_1,3192,FALSE,top-down,163,,mp-557614
2dm-4980,3,ZnSeO3,Pca2_1,4104,TRUE,top-down,71,,mp-5338
2dm-4982,3,TmClO,P-3m1,5152,FALSE,top-down,0,34,mp-772295
2dm-4987,3,Rb2Bi3F11,P1,0,FALSE,top-down,177,,mp-675214
2dm-4988,3,TaNiTe5,Pmma,0,FALSE,top-down,0,73,mp-8998
2dm-4989,3,NaClO2,P2/c,2707,TRUE,top-down,286,,mp-30965
2dm-4990,3,GaTeI7,Pc,1930,FALSE,top-down,0,112,mp-29541
2dm-4994,3,KBi2F7,P1,0,FALSE,top-down,179,105,mp-675250
2dm-4995,3,Ni2SbTe2,P-6m2,0,FALSE,top-down,366,71,mp-3250
2dm-4997,3,AsSeI,P2_1/c,1422,FALSE,top-down,4,90,mp-573700
2dm-5001,3,B2TeO5,P2_1/c,3729,FALSE,top-down,58,51,mp-768235
2dm-5002,3,LiAgF2,P2_1/m,1992,FALSE,top-down,60,,mp-759658
2dm-5004,3,CuHO2,P2/m,786,FALSE,top-down,42,102,mp-996953
2dm-5006,3,Tm2Te5O13,P-1,3086,FALSE,top-down,13,,mp-555236
2dm-5009,3,Er(ReO4)2,P-3,0,FALSE,top-down,26,,mp-755194
2dm-5010,3,ZnW2O5,Amm2,1162,FALSE,top-down,476,26,mvc-8379
2dm-5012,3,Re2NiO8,P-3,3887,TRUE,top-down,0,68,mp-32311
2dm-5013,3,Dy2(BiO2)7,Cm,0,FALSE,top-down,87,69,mp-753975
2dm-5014,3,NaBi5O8,P-1,2286,TRUE,top-down,88,,mp-756721
2dm-5016,3,LiMn2F9,P-1,1334,FALSE,top-down,96,50,mp-763141
2dm-5018,3,Ca3SiBr2,Cm,0,FALSE,top-down,189,,mp-568752
2dm-5019,3,NpIO,P4/nmm,0,FALSE,top-down,0,53,mp-556939
2dm-5021,3,Li2Cr3O6,P3,509,FALSE,top-down,304,294,mp-762466
2dm-5024,3,Ba2V3O8,P4/mmm,0,FALSE,top-down,316,-46,mvc-1098
2dm-5026,3,MgCo4O9,Pc,16,TRUE,top-down,328,,mvc-10506
2dm-5028,3,P2Pb3O8,P2/c,3460,FALSE,top-down,47,91,mp-542152
2dm-5029,3,Bi6B10O21,P-1,1576,FALSE,top-down,166,165,mp-768871
2dm-5030,3,FeTeCl7,P1,1267,FALSE,top-down,0,50,mp-540997
2dm-5032,3,UTeO5,Pbcm,1980,TRUE,top-down,64,147,mp-3516
2dm-5033,3,KClO3,P2_1/m,5536,FALSE,top-down,64,,mp-556084
2dm-5037,3,H3BrO,Cm,5228,FALSE,top-down,1,,mp-625521
2dm-5038,3,LiCrO2,P3m1,0,FALSE,top-down,450,478,mp-766115
2dm-5040,3,Zn2SnN2,C2/m,82,FALSE,top-down,149,,mvc-15382
2dm-5042,3,EuIn2Au,Pm,0,FALSE,top-down,609,,mp-639496
2dm-5044,3,Co2NiO6,C2/m,1275,FALSE,top-down,40,54,mp-765906
2dm-5045,3,Cu(HO)2,Pmn2_1,241,FALSE,top-down,155,90,mp-505105
2dm-5046,3,YCoF5,Pmmm,90,FALSE,top-down,645,538,mvc-3515
2dm-5048,3,Mn3SnO8,P3m1,360,FALSE,top-down,362,,mp-771670
2dm-5049,3,LiVF5,P1,1954,FALSE,top-down,46,,mp-765895
2dm-5051,3,HoIO,P4/nmm,3592,FALSE,top-down,0,47,mp-753173
2dm-5052,3,La2GeI2,P-3m1,402,FALSE,top-down,0,48,mp-570597
2dm-5053,3,KSb3O5,Pc,3263,FALSE,top-down,21,112,mp-31001
2dm-5054,3,CoOF,Pmmm,1035,FALSE,top-down,120,133,mp-775620
2dm-5057,3,Mn3CoO8,P-3m1,1171,FALSE,top-down,29,58,mp-772359
2dm-5059,3,Li4CO4,C2,3346,FALSE,top-down,281,1,mp-550798
2dm-5060,3,NbPO5,P4/nmm,3300,FALSE,top-down,81,169,mp-4888
2dm-5062,3,Co2NiO6,C2/m,1072,FALSE,top-down,82,97,mp-761554
2dm-5063,3,Cr(GaS2)2,P-3m1,0,FALSE,top-down,62,36,mp-985304
2dm-5067,3,Bi2PdO4,P42_12,492,TRUE,top-down,442,603,mp-29259
2dm-5068,3,BaUI6,P1,291,FALSE,top-down,13,,mp-574430
2dm-5070,3,Mg(SbO2)2,Pbcm,3115,FALSE,top-down,212,,mvc-6307
2dm-5072,3,BaBi4O7,P3m1,1939,FALSE,top-down,433,125,mvc-1177
2dm-5073,3,Al(HO)3,Cm,4345,FALSE,top-down,70,77,mp-626497
2dm-5076,3,CuClO2,P222_1,781,FALSE,top-down,0,51,mp-997020
2dm-5077,3,BiAuO2,P2_1/m,1634,FALSE,top-down,100,,mp-997082
2dm-5078,3,Mg5(HO3)2,P-3m1,2608,TRUE,top-down,19,18,mp-30241
2dm-5079,3,SbOF3,P-1,2732,TRUE,top-down,3,37,mp-757111
2dm-5080,3,Ti4ZnO9,P4/n,2705,TRUE,top-down,184,,mvc-10084
2dm-5084,3,Na3InCl6,P312,3871,FALSE,top-down,78,140,mp-675432
2dm-5087,3,Mn2ZnO5,Pmmn,113,TRUE,top-down,404,193,mvc-8367
2dm-5088,3,Re3(TeBr)7,P-3,1153,FALSE,top-down,20,48,mp-623087
2dm-5089,3,Li2VF6,Pmmn,2250,FALSE,top-down,69,15,mp-775789
2dm-5090,3,LiV2O4,P2_1/m,938,TRUE,top-down,189,,mp-764906
2dm-5093,3,RbAuS,Pmma,1999,FALSE,top-down,151,,mp-9010
2dm-5094,3,Cr(WO4)2,P-1,1143,FALSE,top-down,151,49,mvc-708
2dm-5095,3,V2Zn2O7,P2/m,1952,FALSE,top-down,336,,mp-634381
2dm-5096,3,Cu4Bi7S12,P2/m,0,FALSE,top-down,108,149,mp-541149