material_id,nelements,Formula,Spacegroup,Bandgap (meV),Is gap direct?,Discovery process,Decomposition energy (meV/atom),Exfoliation energy (meV/atom),Obtained from
2dm-1,2,IrF2,P-3m1,0,FALSE,bottom-up,799,234,2dm-4963
2dm-10,2,SiBr4,P4/mmm,208,FALSE,bottom-up,513,128,2dm-4359
2dm-100,2,TiSe5,Pmmn,199,FALSE,bottom-up,0,75,2dm-3256
2dm-1000,2,EuN2,Amm2,0,FALSE,bottom-up,1138,,
2dm-1001,2,CePb5,Pmmm,0,FALSE,bottom-up,394,383,2dm-5724
2dm-1002,2,Be2Zn,P4/mmm,0,FALSE,bottom-up,747,513,2dm-5339
2dm-1003,2,BiI3,Pmn2_1,1679,FALSE,bottom-up,114,148,2dm-3709
2dm-1004,2,BN,P4/nmm,4993,FALSE,bottom-up,1114,55,2dm-3743
2dm-1005,2,AlCl,P4mm,0,FALSE,bottom-up,,296,2dm-3775
2dm-1006,2,PtS2,P2_1/c,1937,FALSE,bottom-up,49,132,2dm-3426
2dm-1008,2,GeP2,Pmc2_1,1317,FALSE,bottom-up,14,76,2dm-5490
2dm-1009,2,Zr3Se2,P4/mmm,0,FALSE,bottom-up,0,,2dm-3471
2dm-101,2,US3,P4/nmm,0,FALSE,bottom-up,183,54,2dm-5579
2dm-1010,2,Se4O9,P-3,1726,FALSE,bottom-up,110,83,2dm-3524
2dm-1011,2,CoCl3,C2/m,1286,FALSE,bottom-up,0,69,2dm-3618
2dm-1012,2,Mg2Bi,P-3m1,0,FALSE,bottom-up,431,392,2dm-3665
2dm-1013,2,GaBr,Pbcm,2626,FALSE,bottom-up,58,103,2dm-4627
2dm-1014,2,BI,Aem2,544,FALSE,bottom-up,1601,118,
2dm-1015,2,Sr2Bi,P-3m1,0,FALSE,bottom-up,410,379,2dm-3665
2dm-1016,2,MgF2,P-3m1,7515,FALSE,bottom-up,109,,2dm-4717
2dm-1017,2,PbI3,P1,1754,FALSE,bottom-up,98,,2dm-5235
2dm-1018,2,CuBr2,P2_1/c,0,FALSE,bottom-up,46,62,2dm-5086
2dm-1019,2,AgBr2,P2_1/c,0,FALSE,bottom-up,36,,2dm-3371
2dm-102,2,TlAs,P4/nmm,0,FALSE,bottom-up,434,303,2dm-3743
2dm-1020,2,CuF,Pmma,0,FALSE,bottom-up,271,110,2dm-5106
2dm-1021,2,B2Se,P3,1728,FALSE,bottom-up,471,,2dm-5781
2dm-1022,2,ScF3,P-31m,6712,FALSE,bottom-up,129,,2dm-5715
2dm-1023,2,NbF2,P-3m1,0,FALSE,bottom-up,357,49,2dm-5075
2dm-1024,2,Tl2Se3,P-62m,241,TRUE,bottom-up,210,,2dm-3796
2dm-1026,2,Al2O,P-3m1,0,FALSE,bottom-up,746,506,2dm-4083
2dm-1027,2,CaSi2,P-3m1,0,FALSE,bottom-up,1230,1258,2dm-5516
2dm-1028,2,NiSb2,P-3,0,FALSE,bottom-up,187,,2dm-5830
2dm-1029,2,AlN,P4/nmm,3479,FALSE,bottom-up,583,109,2dm-3743
2dm-103,2,PBr4,P-1,221,FALSE,bottom-up,145,161,2dm-4763
2dm-1030,2,NbS,P4/nmm,0,FALSE,bottom-up,408,92,2dm-4224
2dm-1031,2,GdF3,C2/m,4106,FALSE,bottom-up,0,,2dm-3657
2dm-1032,2,Be2As,P6/mmm,0,FALSE,bottom-up,703,455,2dm-3665
2dm-1033,2,GaI,P4/nmm,2247,TRUE,bottom-up,37,130,
2dm-1034,2,ZrCl3,P-1,367,FALSE,bottom-up,24,71,2dm-3805
2dm-1035,2,HfCl3,P-1,335,FALSE,bottom-up,49,70,2dm-3805
2dm-1036,2,Y2Sn,P-3m1,0,FALSE,bottom-up,921,601,2dm-5825
2dm-1037,2,AgI2,P2_1/c,0,FALSE,bottom-up,117,98,2dm-3371
2dm-1038,2,Sc2Cl5,P2_1/m,275,FALSE,bottom-up,55,66,2dm-5545
2dm-1039,2,Ca2As,P-3m1,0,FALSE,bottom-up,364,256,2dm-3665
2dm-104,2,AlCl,Pbcm,2531,FALSE,bottom-up,683,88,2dm-4627
2dm-1040,2,Ba5Tm,P1,0,FALSE,bottom-up,377,291,2dm-4330
2dm-1041,2,NbCl5,P1,557,FALSE,bottom-up,,218,
2dm-1042,2,SrSn2,P-3m1,0,FALSE,bottom-up,731,791,2dm-5517
2dm-1043,2,V2S3,C2/m,266,FALSE,bottom-up,56,72,2dm-4351
2dm-1044,2,InI3,Pmc2_1,1100,TRUE,bottom-up,53,,2dm-3521
2dm-1045,2,Tc3Cl8,Cm,37,FALSE,bottom-up,113,74,2dm-4993
2dm-1046,2,SmPb2,P4/mmm,0,FALSE,bottom-up,285,283,2dm-3160
2dm-1047,2,TcI3,C2/m,0,FALSE,bottom-up,0,,2dm-5379
2dm-1048,2,ThF2,P-6m2,371,TRUE,bottom-up,576,,2dm-3738
2dm-1049,2,BP,P4/nmm,0,FALSE,bottom-up,784,54,2dm-3743
2dm-105,2,Ge2Ru,P4/mmm,0,FALSE,bottom-up,441,369,2dm-3563
2dm-1050,2,Mg2Cd,P4/mmm,0,FALSE,bottom-up,342,325,2dm-5339
2dm-1051,2,HfBr4,P1,3084,FALSE,bottom-up,0,,2dm-4444
2dm-1052,2,U2S5,P2/m,0,FALSE,bottom-up,30,33,2dm-4396
2dm-1053,2,CeSn5,Pmmm,0,FALSE,bottom-up,347,359,2dm-5724
2dm-1054,2,CuBr,Pmma,644,FALSE,bottom-up,192,59,2dm-5106
2dm-1056,2,ReI3,C2/m,94,FALSE,bottom-up,233,,2dm-5379
2dm-1057,2,TcS,P4/nmm,0,FALSE,bottom-up,201,96,2dm-5286
2dm-1058,2,Re2Br5,P2/c,0,FALSE,bottom-up,494,,2dm-4185
2dm-1059,2,AuBr,Pmma,0,FALSE,bottom-up,274,108,2dm-5106
2dm-106,2,TcI3,P-3m1,749,FALSE,bottom-up,0,77,2dm-3697
2dm-1060,2,BeSi2,P-3m1,0,FALSE,bottom-up,544,157,2dm-5516
2dm-1061,2,Cu2Se,P2_1,127,TRUE,bottom-up,28,107,2dm-4305
2dm-1062,2,S3N2,P2_1/m,0,FALSE,bottom-up,456,,2dm-3531
2dm-1063,2,CeSi2,P4/mmm,0,FALSE,bottom-up,923,969,2dm-3652
2dm-1064,2,SmSi2,P4/mmm,0,FALSE,bottom-up,892,936,2dm-3160
2dm-1065,2,MoBr4,P-1,0,FALSE,bottom-up,24,76,2dm-4793
2dm-1066,2,MoI2,R-3m,0,FALSE,bottom-up,211,-12,2dm-4342
2dm-1067,2,SnI4,P4/mmm,0,FALSE,bottom-up,261,191,2dm-4359
2dm-1068,2,Nb2O5,P2_1/m,3080,FALSE,bottom-up,165,,2dm-3664
2dm-1069,2,GeI3,P1,991,FALSE,bottom-up,87,,2dm-5235
2dm-107,2,ThBr4,P2_1/c,2296,TRUE,bottom-up,0,,2dm-3541
2dm-1070,2,CuI,Pmma,227,FALSE,bottom-up,,56,2dm-5106
2dm-1071,2,LaSi3,P6/mmm,0,FALSE,bottom-up,1199,,2dm-5552
2dm-1072,2,Bi2O3,P2_1/m,3042,FALSE,bottom-up,113,,2dm-3771
2dm-1073,2,BSb,P4/nmm,0,FALSE,bottom-up,900,63,2dm-3743
2dm-1074,2,TaF2,P-3m1,0,FALSE,bottom-up,552,50,2dm-5075
2dm-1075,2,CuF,P-6m2,0,FALSE,bottom-up,,,2dm-3766
2dm-1077,2,OsC2,P4/mmm,0,FALSE,bottom-up,2099,1124,2dm-3563
2dm-1078,2,TcTe,P4/nmm,0,FALSE,bottom-up,70,98,2dm-5286
2dm-1079,2,GaI3,Pmc2_1,2226,FALSE,bottom-up,35,,2dm-3521
2dm-108,2,N2O3,Pc,753,FALSE,bottom-up,226,8,2dm-3779
2dm-1080,2,CF2,P-3m1,1743,FALSE,bottom-up,2205,1133,2dm-3464
2dm-1081,2,Tc3Br8,Cm,9,TRUE,bottom-up,136,,2dm-4993
2dm-1082,2,BBr,P4mm,1828,FALSE,bottom-up,,116,2dm-3775
2dm-1083,2,Sb2Pb,Pmc2_1,330,FALSE,bottom-up,176,,2dm-4912
2dm-1084,2,BS,C2/m,1888,TRUE,bottom-up,78,54,2dm-3756
2dm-1085,2,Ba2P,P-3m1,0,FALSE,bottom-up,159,217,2dm-3279
2dm-1086,2,Be2Sb,P6/mmm,0,FALSE,bottom-up,940,424,2dm-3665
2dm-1087,2,Te2Pt,P2_1/c,1430,FALSE,bottom-up,156,193,2dm-5050
2dm-1088,2,RhCl2,P-3m1,0,FALSE,bottom-up,281,83,2dm-4948
2dm-1089,2,La2Pb,P-3m1,0,FALSE,bottom-up,676,,2dm-3189
2dm-109,2,PdF2,P-3m1,647,FALSE,bottom-up,96,81,2dm-3741
2dm-1090,2,CO,P4/nmm,221,FALSE,bottom-up,2910,,2dm-3561
2dm-1091,2,ReI4,P2_1/c,0,FALSE,bottom-up,197,,2dm-5281
2dm-1092,2,PrSi5,Pmmm,0,FALSE,bottom-up,625,549,2dm-5299
2dm-1093,2,TlSb3,P-3m1,5,FALSE,bottom-up,283,381,
2dm-1094,2,AsI3,Pmn2_1,1618,FALSE,bottom-up,53,129,2dm-3709
2dm-1095,2,AgCl2,P2_1/c,0,FALSE,bottom-up,0,101,2dm-3371
2dm-1096,2,ZnCl2,P-3m1,4516,FALSE,bottom-up,68,,2dm-4402
2dm-1097,2,RhI4,P2_1/c,0,FALSE,bottom-up,0,,2dm-5163
2dm-1098,2,TeOs,P4/nmm,0,FALSE,bottom-up,416,,2dm-5485
2dm-1099,2,AlCl,Aem2,2465,FALSE,bottom-up,695,81,
2dm-11,2,SrO2,P4/mmm,2939,FALSE,bottom-up,91,217,2dm-4188
2dm-110,2,Te2Pb,P-3m1,0,FALSE,bottom-up,400,298,2dm-3203
2dm-1100,2,HPb3,P-3m1,0,FALSE,bottom-up,365,62,2dm-5083
2dm-1101,2,FeF3,P-31m,3684,FALSE,bottom-up,75,,2dm-4487
2dm-1102,2,Be2P,P-3m1,0,FALSE,bottom-up,731,,2dm-3665
2dm-1103,2,TcBr4,P2_1/c,0,FALSE,bottom-up,83,,2dm-5281
2dm-1104,2,TlTe,P-3m1,503,FALSE,bottom-up,166,99,2dm-4063
2dm-1105,2,PdN2,P-3m1,0,FALSE,bottom-up,1658,181,2dm-5830
2dm-1106,2,Ta2O5,Pmn2_1,2662,FALSE,bottom-up,146,,2dm-5856
2dm-1107,2,AuI,Pmma,0,FALSE,bottom-up,263,88,2dm-5106
2dm-1108,2,RuPb2,P4/mmm,0,FALSE,bottom-up,371,144,2dm-3563
2dm-1109,2,BeC2,P-3m1,0,FALSE,bottom-up,2690,1928,2dm-5517
2dm-111,2,InF3,P-31m,4889,FALSE,bottom-up,82,60,2dm-3681
2dm-1110,2,CuI2,C2/m,0,FALSE,bottom-up,70,69,2dm-5086
2dm-1111,2,HfI3,P-1,328,FALSE,bottom-up,66,88,2dm-3805
2dm-1112,2,BeBr2,P-3m1,4227,FALSE,bottom-up,288,67,2dm-4717
2dm-1113,2,Sr5La,P1,0,FALSE,bottom-up,321,261,2dm-4891
2dm-1114,2,Sn2Ru,P4/mmm,0,FALSE,bottom-up,341,292,2dm-3563
2dm-1115,2,NiSe2,P2_1/c,1072,FALSE,bottom-up,57,211,2dm-3017
2dm-1116,2,BeAg,P6/mmm,0,FALSE,bottom-up,1090,629,2dm-5120
2dm-1117,2,TlBr3,C2/m,1724,FALSE,bottom-up,12,81,2dm-3681
2dm-1118,2,BiO2,Pmmn,320,FALSE,bottom-up,136,,2dm-3642
2dm-1119,2,PI3,Pmn2_1,1850,FALSE,bottom-up,24,85,2dm-3709
2dm-112,2,Be5Co,Pmc2_1,0,FALSE,bottom-up,440,313,2dm-5064
2dm-1120,2,CO,Cmme,5529,FALSE,bottom-up,694,35,2dm-3669
2dm-1121,2,AuF,Pmma,0,FALSE,bottom-up,293,135,2dm-5106
2dm-1122,2,Tc2Cl7,P2/c,96,FALSE,bottom-up,24,,2dm-4014
2dm-1123,2,Ga2Se3,P-62m,1969,TRUE,bottom-up,191,,2dm-3796
2dm-1124,2,CdF2,P-4m2,3854,FALSE,bottom-up,240,,2dm-4713
2dm-1125,2,CS2,P-3m1,0,FALSE,bottom-up,1422,70,2dm-4715
2dm-1126,2,BS,P-6m2,2786,FALSE,bottom-up,0,44,2dm-3099
2dm-1127,2,BiCl3,Pmmn,2917,FALSE,bottom-up,0,10,2dm-3709
2dm-1128,2,NpBr3,P-6m2,26,FALSE,bottom-up,358,,
2dm-1129,2,Sr2Co,P4/mmm,0,FALSE,bottom-up,600,212,2dm-3380
2dm-113,2,Sc2F3,C2/m,873,FALSE,bottom-up,,102,2dm-3786
2dm-1130,2,NiN2,P-3m1,0,FALSE,bottom-up,1296,,2dm-5830
2dm-1131,2,In3Co,P-6m2,0,FALSE,bottom-up,657,461,2dm-3758
2dm-1132,2,ZrCl4,P-1,3442,FALSE,bottom-up,12,,2dm-4444
2dm-1133,2,PdC4,P6/mmm,0,FALSE,bottom-up,264,-803,2dm-3525
2dm-1134,2,GaBi3,P-3m1,78,TRUE,bottom-up,287,,
2dm-1135,2,BiBr3,Pmn2_1,2349,FALSE,bottom-up,96,123,2dm-3709
2dm-1136,2,RhCl4,P2_1/c,0,FALSE,bottom-up,9,,2dm-5163
2dm-1138,2,BSe,P-1,2598,FALSE,bottom-up,0,51,2dm-5155
2dm-1139,2,ScF,P-3m1,0,FALSE,bottom-up,162,60,2dm-4695
2dm-114,2,TaCl2,P-3m1,0,FALSE,bottom-up,375,60,2dm-5075
2dm-1140,2,Tb2Pb,P-3m1,0,FALSE,bottom-up,759,556,2dm-4563
2dm-1141,2,GaN,P4/nmm,1327,FALSE,bottom-up,772,128,2dm-3743
2dm-1142,2,YF2,P-6m2,1173,FALSE,bottom-up,388,61,2dm-5867
2dm-1143,2,CS,P3m1,1233,FALSE,bottom-up,1433,118,2dm-3977
2dm-1144,2,TlN3,P-3m1,420,FALSE,bottom-up,436,6,
2dm-1145,2,PbI4,P4/mmm,0,FALSE,bottom-up,389,,2dm-3719
2dm-1146,2,AlAs,P4/nmm,751,TRUE,bottom-up,224,87,2dm-3743
2dm-1147,2,Si4Pd,P4/nbm,0,FALSE,bottom-up,525,363,2dm-3525
2dm-1149,2,Re2Cl5,P2/c,0,FALSE,bottom-up,722,,2dm-4185
2dm-115,2,SnBi,P-1,701,FALSE,bottom-up,84,142,2dm-4588
2dm-1150,2,YF2,P4/mmm,0,FALSE,bottom-up,580,209,2dm-3640
2dm-1151,2,CeC2,P4/mmm,0,FALSE,bottom-up,762,341,2dm-3652
2dm-1152,2,SnBr4,P4/mmm,447,FALSE,bottom-up,229,129,2dm-4359
2dm-1153,2,Bi2O3,Pmn2_1,3024,FALSE,bottom-up,68,,2dm-3779
2dm-1154,2,TaTe,P4/nmm,0,FALSE,bottom-up,186,92,2dm-4224
2dm-1155,2,HfSi2,P4/nmm,0,FALSE,bottom-up,467,491,2dm-3413
2dm-1156,2,CeSn2,P4/mmm,0,FALSE,bottom-up,636,536,2dm-3652
2dm-1157,2,InBr3,Pmc2_1,1544,TRUE,bottom-up,80,,2dm-3521
2dm-1158,2,W3O8,C2/m,2689,FALSE,bottom-up,153,96,2dm-5654
2dm-1159,2,PdS,P4/nmm,0,FALSE,bottom-up,337,165,2dm-5133
2dm-116,2,InI,P4mm,1414,TRUE,bottom-up,,675,2dm-3775
2dm-1160,2,Tl3Rh,P-6m2,0,FALSE,bottom-up,440,381,2dm-3758
2dm-1161,2,SrAg,P6/mmm,0,FALSE,bottom-up,253,194,2dm-5120
2dm-1162,2,AlN3,P-3m1,0,FALSE,bottom-up,1117,525,
2dm-1163,2,Ga3Rh,P-6m2,0,FALSE,bottom-up,743,610,2dm-3758
2dm-1164,2,CaSn2,P-3m1,0,FALSE,bottom-up,570,586,2dm-5517
2dm-1165,2,Sr2Cd,P4/mmm,0,FALSE,bottom-up,214,276,2dm-5339
2dm-1166,2,SnBi,C2/m,920,TRUE,bottom-up,85,,2dm-3474
2dm-1167,2,In3Rh,P-6m2,0,FALSE,bottom-up,679,545,2dm-3758
2dm-1168,2,GaAs,P4/nmm,0,FALSE,bottom-up,324,128,2dm-3743
2dm-1169,2,C2O3,P2_1/c,6052,TRUE,bottom-up,300,,2dm-3613
2dm-117,2,SiSe,Pmmn,1163,FALSE,bottom-up,433,85,2dm-3338
2dm-1170,2,CaGe2,P-3m1,0,FALSE,bottom-up,929,983,2dm-5517
2dm-1171,2,BeAu,P6/mmm,0,FALSE,bottom-up,1019,,2dm-5120
2dm-1172,2,IrI4,P2_1/c,0,FALSE,bottom-up,111,,2dm-5163
2dm-1173,2,ReTe,P4/nmm,0,FALSE,bottom-up,536,99,2dm-5286
2dm-1174,2,SCl,P-1,2278,FALSE,bottom-up,31,15,2dm-3502
2dm-1175,2,Ba5La,P1,0,FALSE,bottom-up,335,270,2dm-4891
2dm-1176,2,AlBi3,P-3m1,66,TRUE,bottom-up,374,351,
2dm-1177,2,TaF3,P-31m,0,FALSE,bottom-up,414,51,2dm-3549
2dm-1178,2,Ta2O5,P2_1,3705,FALSE,bottom-up,329,,2dm-5656
2dm-1179,2,CuS2,P-3m1,0,FALSE,bottom-up,402,264,2dm-3587
2dm-118,2,In2O,P-3m1,0,FALSE,bottom-up,249,81,2dm-4083
2dm-1180,2,SCl,P-1,2235,TRUE,bottom-up,36,68,2dm-4682
2dm-1181,2,MgSi2,P-3m1,0,FALSE,bottom-up,624,589,2dm-5516
2dm-1182,2,Sc2Sn,P-3m1,0,FALSE,bottom-up,840,643,2dm-3189
2dm-1183,2,GaI,Pbcm,2267,TRUE,bottom-up,36,,2dm-4627
2dm-1184,2,AsBr3,Pmn2_1,2647,FALSE,bottom-up,22,66,2dm-3709
2dm-1185,2,P9Cl2,P2_1/m,0,FALSE,bottom-up,250,196,2dm-3684
2dm-1186,2,InI,P4/nmm,2208,TRUE,bottom-up,36,116,
2dm-1187,2,IrCl2,P-3m1,0,FALSE,bottom-up,592,94,2dm-4948
2dm-1188,2,MgAu,P6/mmm,0,FALSE,bottom-up,654,,2dm-5120
2dm-1189,2,ScCl3,Pmmn,2884,FALSE,bottom-up,98,71,2dm-3582
2dm-119,2,Sr5Co,Pmc2_1,0,FALSE,bottom-up,396,,2dm-5064
2dm-1190,2,NiAs2,P2_1/m,0,FALSE,bottom-up,256,155,2dm-4348
2dm-1191,2,ReBr3,P-31m,0,TRUE,bottom-up,0,,2dm-5379
2dm-1192,2,TeRu,P4/nmm,0,FALSE,bottom-up,153,101,2dm-5485
2dm-1193,2,NpI3,P-6m2,22,TRUE,bottom-up,17,,
2dm-1195,2,BCl,P4mm,1812,FALSE,bottom-up,,84,2dm-3775
2dm-1197,2,InI3,C2/m,1692,FALSE,bottom-up,14,88,2dm-3681
2dm-1198,2,PrSn5,Pmmm,0,FALSE,bottom-up,358,409,2dm-5299
2dm-1199,2,GeBi2,Pmc2_1,705,FALSE,bottom-up,143,,2dm-4912
2dm-12,2,TaCl4,P4/mmm,0,FALSE,bottom-up,238,96,2dm-3290
2dm-120,2,YPb3,P6/mmm,0,FALSE,bottom-up,639,,2dm-5552
2dm-1200,2,Ga2S5,P1,1859,TRUE,bottom-up,0,88,2dm-4306
2dm-1201,2,TaI4,P4/mmm,0,FALSE,bottom-up,282,150,2dm-3290
2dm-1202,2,Si4Ni,P4/nbm,0,FALSE,bottom-up,476,366,2dm-3525
2dm-1203,2,ThBr2,P-6m2,0,FALSE,bottom-up,17,,2dm-3738
2dm-1204,2,PbBr3,P1,340,FALSE,bottom-up,168,,2dm-5235
2dm-1205,2,Nb2O5,P2_1/m,2496,FALSE,bottom-up,75,,2dm-4298
2dm-1206,2,MgC2,P-3m1,0,FALSE,bottom-up,3276,2624,2dm-5517
2dm-1207,2,CS,Pmn2_1,1017,FALSE,bottom-up,1123,63,2dm-4478
2dm-1208,2,Y2Pb,P-3m1,0,FALSE,bottom-up,600,697,2dm-5825
2dm-1209,2,LaF,P-3m1,0,FALSE,bottom-up,325,,2dm-4695
2dm-121,2,TlF3,C2/m,3033,FALSE,bottom-up,29,84,2dm-4040
2dm-1210,2,B3Rh,P-6m2,0,FALSE,bottom-up,2163,1103,2dm-3758
2dm-1211,2,PtC3,Pbam,0,FALSE,bottom-up,1709,,2dm-5866
2dm-1212,2,SrSi2,P-3m1,0,FALSE,bottom-up,1479,1492,2dm-5516
2dm-1213,2,SrPb2,P-3m1,0,FALSE,bottom-up,590,596,2dm-5517
2dm-1215,2,Be2Co,P4/mmm,0,FALSE,bottom-up,414,440,2dm-3380
2dm-1216,2,Sr2Zn,P4/mmm,0,FALSE,bottom-up,191,267,2dm-5339
2dm-1217,2,PrC5,Pmmm,0,FALSE,bottom-up,1909,821,2dm-5299
2dm-1218,2,CrI4,P-1,0,FALSE,bottom-up,0,,2dm-4502
2dm-1219,2,ScBr,P-3m1,0,FALSE,bottom-up,0,54,2dm-4695
2dm-122,2,TaBr2,P-3m1,0,FALSE,bottom-up,440,63,2dm-3622
2dm-1220,2,PbCl3,P1,768,FALSE,bottom-up,92,79,2dm-5235
2dm-1221,2,NdPb2,P4/mmm,0,FALSE,bottom-up,344,246,2dm-3714
2dm-1223,2,WI2,C2/m,0,FALSE,bottom-up,638,48,2dm-4342
2dm-1224,2,BiPb,P-1,303,TRUE,bottom-up,254,,2dm-3615
2dm-1225,2,Bi2Pb,Pmc2_1,268,FALSE,bottom-up,187,,2dm-4912
2dm-1226,2,InI,Pbcm,2220,FALSE,bottom-up,37,117,2dm-4627
2dm-1228,2,Sr5Y,P1,0,FALSE,bottom-up,344,285,2dm-4891
2dm-1229,2,WBr4,P1,423,FALSE,bottom-up,267,,2dm-4502
2dm-123,2,Sn3H,P-3m1,0,FALSE,bottom-up,90,38,2dm-5083
2dm-1230,2,CaC2,P-3m1,0,FALSE,bottom-up,3469,2732,2dm-5517
2dm-1231,2,ZrI3,P-1,319,FALSE,bottom-up,60,90,2dm-3805
2dm-1232,2,RhS,P4/nmm,0,FALSE,bottom-up,205,130,2dm-4022
2dm-1233,2,Te3N2,P-3m1,0,FALSE,bottom-up,1033,75,2dm-4453
2dm-1234,2,AlI3,Pmc2_1,1853,TRUE,bottom-up,95,104,2dm-3521
2dm-1235,2,IrC3,P4/mbm,0,FALSE,bottom-up,1689,,
2dm-1236,2,B2S5,C2/m,1338,FALSE,bottom-up,99,67,2dm-4985
2dm-1237,2,CCl2,P-3m1,1763,FALSE,bottom-up,1505,65,2dm-3464
2dm-1238,2,Re3Br8,C2,149,FALSE,bottom-up,68,,2dm-4993
2dm-1239,2,TcBr3,P-31m,0,FALSE,bottom-up,51,,2dm-5379
2dm-124,2,GeH,P-3m1,1068,TRUE,bottom-up,26,36,2dm-4712
2dm-1240,2,CrO3,Pm,1251,FALSE,bottom-up,122,,2dm-3784
2dm-1242,2,P9Br2,P2_1/m,0,FALSE,bottom-up,314,245,2dm-3684
2dm-1243,2,CePb2,P4/mmm,0,FALSE,bottom-up,340,,2dm-3652
2dm-1244,2,EuPb2,P-3m1,0,FALSE,bottom-up,503,,
2dm-1245,2,NiPb4,P4/nbm,0,FALSE,bottom-up,143,170,2dm-3525
2dm-1246,2,Se3N2,P-3m1,0,FALSE,bottom-up,1239,,2dm-2995
2dm-1247,2,Gd2Cl3,C2/m,0,FALSE,bottom-up,8,,2dm-5591
2dm-1248,2,BCl3,C2/m,4707,TRUE,bottom-up,120,-544,2dm-4040
2dm-1249,2,BeSn2,P-3m1,0,FALSE,bottom-up,505,280,2dm-5517
2dm-125,2,TbBr3,Pmmn,2907,FALSE,bottom-up,0,85,2dm-3753
2dm-1250,2,Mg2As,P-3m1,0,FALSE,bottom-up,532,373,2dm-3665
2dm-1251,2,SrI2,P-4m2,4113,TRUE,bottom-up,180,194,2dm-4009
2dm-1252,2,HfTe3,P2_1/m,0,FALSE,bottom-up,25,,2dm-5326
2dm-1253,2,SnBi2,Pmc2_1,527,FALSE,bottom-up,81,,2dm-4912
2dm-1254,2,ScI,P-3m1,0,FALSE,bottom-up,97,62,2dm-4695
2dm-1255,2,B2Se5,P-1,721,FALSE,bottom-up,0,72,2dm-4306
2dm-1256,2,S3N2,P2_1/m,0,FALSE,bottom-up,416,,2dm-4253
2dm-1257,2,SbI4,P-1,0,FALSE,bottom-up,133,144,2dm-4763
2dm-1258,2,BI3,Pmc2_1,2238,TRUE,bottom-up,29,113,2dm-3521
2dm-1259,2,GeBr3,P1,2014,TRUE,bottom-up,73,66,2dm-5235
2dm-126,2,SiCl2,P-3m1,2186,FALSE,bottom-up,585,72,2dm-3464
2dm-1260,2,OsS,P4/nmm,0,FALSE,bottom-up,356,107,2dm-5485
2dm-1261,2,Au18Se11,P1,0,FALSE,bottom-up,208,,
2dm-1262,2,ScF2,P-6m2,740,FALSE,bottom-up,300,50,2dm-5867
2dm-1263,2,ScF2,P4/mmm,0,FALSE,bottom-up,442,72,2dm-3640
2dm-1264,2,Mo3O8,C2/m,1759,FALSE,bottom-up,37,,2dm-5654
2dm-1265,2,PtS,P4/nmm,0,FALSE,bottom-up,730,191,2dm-5133
2dm-1266,2,FeBr4,P2_1/c,3,TRUE,bottom-up,0,,2dm-4073
2dm-1267,2,HgF2,P-3m1,1976,TRUE,bottom-up,59,170,2dm-5204
2dm-1268,2,IrBr4,P2_1/c,0,FALSE,bottom-up,85,,2dm-5163
2dm-1269,2,SrC2,P-3m1,198,FALSE,bottom-up,3193,2159,2dm-5517
2dm-127,2,SiCl3,P1,2900,FALSE,bottom-up,194,64,2dm-5235
2dm-1270,2,RuSe,P4/nmm,0,FALSE,bottom-up,74,97,2dm-5523
2dm-1271,2,SmC2,P4/mmm,0,FALSE,bottom-up,671,252,2dm-3160
2dm-1272,2,SiN3,P-3m1,831,FALSE,bottom-up,1207,64,2dm-5503
2dm-1273,2,VI4,P4/mmm,0,FALSE,bottom-up,164,203,2dm-3290
2dm-1274,2,NiN2,P-1,179,FALSE,bottom-up,175,,2dm-4348
2dm-1275,2,SO2,P2_1/c,3031,FALSE,bottom-up,40,-90,2dm-3694
2dm-1276,2,PbN2,Pmc2_1,0,FALSE,bottom-up,246,-1218,2dm-4912
2dm-1277,2,Bi5B,Pmc2_1,0,FALSE,bottom-up,585,,2dm-3922
2dm-1278,2,AlBi5,Pmc2_1,0,FALSE,bottom-up,398,265,2dm-3922
2dm-1279,2,GaBi5,Pmc2_1,0,FALSE,bottom-up,250,,2dm-3922
2dm-128,2,Ca5La,P1,0,FALSE,bottom-up,332,284,2dm-4891
2dm-1280,2,GeBi,C2/m,941,TRUE,bottom-up,147,105,2dm-3474
2dm-1281,2,InBi5,Pmc2_1,55,TRUE,bottom-up,252,,2dm-3922
2dm-1282,2,Si3Pt,P4/mbm,0,FALSE,bottom-up,484,365,2dm-5866
2dm-1283,2,Te5Ru4,P4/n,0,FALSE,bottom-up,241,,2dm-4626
2dm-1284,2,B4O3,P2_1/m,0,FALSE,bottom-up,598,-206,2dm-3496
2dm-1285,2,ReCl4,P2_1/c,0,FALSE,bottom-up,139,,2dm-5281
2dm-1286,2,BSb5,Pmc2_1,0,FALSE,bottom-up,620,,2dm-3922
2dm-1287,2,ReBr4,P2_1/c,0,FALSE,bottom-up,0,,2dm-5281
2dm-1288,2,ZrBr4,P1,2591,FALSE,bottom-up,0,,2dm-4444
2dm-1289,2,P4Cl,P2/m,0,FALSE,bottom-up,305,245,2dm-5639
2dm-129,2,SeBr,P-1,1192,FALSE,bottom-up,5,84,2dm-3502
2dm-1290,2,TcCl4,P2_1/c,0,FALSE,bottom-up,87,,2dm-5281
2dm-1291,2,Ge3I8,P1,521,FALSE,bottom-up,130,,2dm-3403
2dm-1292,2,NbI5,P1,542,FALSE,bottom-up,,,
2dm-1293,2,CrBr4,P-1,0,FALSE,bottom-up,137,,2dm-4502
2dm-1294,2,Y2Te3,P1,780,FALSE,bottom-up,102,423,
2dm-1295,2,In2O3,Pmn2_1,1526,FALSE,bottom-up,192,,2dm-5005
2dm-1296,2,TiTe3,P2_1/m,0,FALSE,bottom-up,46,,2dm-3809
2dm-1297,2,TePt,P4/nmm,0,FALSE,bottom-up,299,208,2dm-5133
2dm-1298,2,AlBr,Aem2,2067,FALSE,bottom-up,604,84,
2dm-1299,2,GaN3,P-3m1,0,FALSE,bottom-up,803,,
2dm-13,2,SnCl4,P4/mmm,1298,FALSE,bottom-up,182,101,2dm-4359
2dm-130,2,CN2,Pmc2_1,0,FALSE,bottom-up,425,,2dm-4912
2dm-1300,2,OsPb2,P4/mmm,0,FALSE,bottom-up,672,,2dm-3563
2dm-1301,2,Re2Cl7,P2/c,178,TRUE,bottom-up,180,,2dm-4014
2dm-1302,2,CS,Pmmn,0,FALSE,bottom-up,1430,62,2dm-4801
2dm-1303,2,Os4Se5,P4/n,13,FALSE,bottom-up,311,,2dm-4626
2dm-1304,2,Ge3H,P-3m1,98,TRUE,bottom-up,34,28,2dm-5083
2dm-1305,2,InSb5,Pmc2_1,610,TRUE,bottom-up,215,142,2dm-3922
2dm-1306,2,Ge4Pd,P4/nbm,0,FALSE,bottom-up,270,220,2dm-3525
2dm-1307,2,O5F2,P2_1,677,TRUE,bottom-up,0,,2dm-3828
2dm-1308,2,EuSn2,P-3m1,0,FALSE,bottom-up,646,669,
2dm-1309,2,Bi3C,P-3m1,0,TRUE,bottom-up,1004,192,2dm-5503
2dm-131,2,MoF3,P-31m,4314,FALSE,bottom-up,107,59,2dm-3768
2dm-1311,2,NbBr4,P2_1/c,0,FALSE,bottom-up,143,-122,2dm-4128
2dm-1312,2,Be2Cd,P4/mmm,0,FALSE,bottom-up,1190,756,2dm-5339
2dm-1313,2,Sb3Pb,P-3m1,0,FALSE,bottom-up,228,304,2dm-5503
2dm-1314,2,ZrI4,P-1,1721,FALSE,bottom-up,13,92,2dm-4444
2dm-1315,2,Tl2Te3,P-62m,10,FALSE,bottom-up,280,,2dm-3796
2dm-1316,2,NbCl4,P2_1/c,276,FALSE,bottom-up,83,,2dm-4128
2dm-1317,2,PuBr3,P-6m2,0,FALSE,bottom-up,345,324,2dm-5505
2dm-1318,2,PtC4,Cmmm,1208,FALSE,bottom-up,1713,833,2dm-5529
2dm-1319,2,Tc3I8,P1,37,FALSE,bottom-up,21,,2dm-4993
2dm-132,2,AlTe,C2/m,1494,FALSE,bottom-up,34,85,2dm-3756
2dm-1320,2,Re2Br7,P2/c,0,FALSE,bottom-up,0,,2dm-4014
2dm-1321,2,BAs3,P-3m1,0,FALSE,bottom-up,398,159,
2dm-1322,2,SnSb3,P-3m1,0,FALSE,bottom-up,245,334,2dm-5503
2dm-1323,2,PbBr4,P4/mmm,0,FALSE,bottom-up,278,,2dm-3719
2dm-1324,2,CuTe,P2/m,0,FALSE,bottom-up,85,112,2dm-3506
2dm-1325,2,NbCl4,P2_1/c,0,FALSE,bottom-up,118,,2dm-5426
2dm-1326,2,Bi3B,P-3m1,0,TRUE,bottom-up,740,192,
2dm-1327,2,AuCl,P-3m1,0,FALSE,bottom-up,312,,2dm-4972
2dm-1328,2,Tc2Br7,P2/c,59,FALSE,bottom-up,36,,2dm-4014