material_id,nelements,Formula,Spacegroup,Bandgap (meV),Is gap direct?,Discovery process,Decomposition energy (meV/atom),Exfoliation energy (meV/atom),Obtained from
2dm-82,2,Tl2Ru,P4/mmm,0,FALSE,bottom-up,654,184,2dm-4344
2dm-820,2,SiBr3,P1,2624,FALSE,bottom-up,179,74,2dm-5235
2dm-821,2,CuS,P-1,0,FALSE,bottom-up,127,59,2dm-4023
2dm-822,2,NbTe3,P2_1/m,0,FALSE,bottom-up,33,70,2dm-5258
2dm-823,2,GeN,C2/m,1340,FALSE,bottom-up,326,,2dm-3474
2dm-824,2,NpCl3,Pmmn,0,FALSE,bottom-up,3,90,2dm-4540
2dm-825,2,Sb2Pt,P4/mmm,0,FALSE,bottom-up,391,118,2dm-5531
2dm-826,2,ReCl3,C2/m,132,FALSE,bottom-up,226,,2dm-5379
2dm-828,2,TcTe2,P-1,749,FALSE,bottom-up,0,,2dm-4006
2dm-829,2,MoS2,P2_1/m,43,TRUE,bottom-up,186,,2dm-3497
2dm-83,2,SiN,P-1,1472,FALSE,bottom-up,432,49,2dm-4588
2dm-830,2,Nb2Te,P4/nmm,0,FALSE,bottom-up,39,61,2dm-3801
2dm-831,2,GeO,P4/nmm,2194,FALSE,bottom-up,181,103,2dm-3561
2dm-832,2,V2S,P4/nmm,0,FALSE,bottom-up,93,53,2dm-3801
2dm-833,2,V2Se3,P2_1/m,0,FALSE,bottom-up,8,88,2dm-4813
2dm-834,2,P2S3,P2_1/m,396,FALSE,bottom-up,174,75,2dm-4253
2dm-835,2,AlSe,P-3m1,2078,FALSE,bottom-up,0,58,2dm-4063
2dm-836,2,Tl2O3,P-62m,947,TRUE,bottom-up,509,,2dm-3374
2dm-837,2,Si3Ni,P4/mbm,0,FALSE,bottom-up,354,223,2dm-5866
2dm-838,2,Y2S3,C2,2457,TRUE,bottom-up,306,427,
2dm-839,2,TeAu2,P2_1,986,TRUE,bottom-up,11,151,2dm-4305
2dm-84,2,PtS,P-3m1,0,FALSE,bottom-up,389,113,2dm-3377
2dm-840,2,CuTe,P-1,0,FALSE,bottom-up,97,,2dm-4023
2dm-841,2,Ge2Os,P4/mmm,0,FALSE,bottom-up,452,324,2dm-3563
2dm-842,2,BI,Pbcm,821,TRUE,bottom-up,1603,114,2dm-4627
2dm-843,2,GaF,P4/nmm,2956,FALSE,bottom-up,197,43,2dm-3762
2dm-844,2,TiI,P-3m1,0,FALSE,bottom-up,165,58,2dm-4412
2dm-845,2,ClO3,P-1,1116,FALSE,bottom-up,24,20,2dm-3676
2dm-846,2,GaBr,P4mm,2089,FALSE,bottom-up,,558,2dm-3775
2dm-847,2,AsCl3,C2/m,2964,FALSE,bottom-up,99,70,2dm-3868
2dm-848,2,Tb5F8,P2/m,0,FALSE,bottom-up,378,281,2dm-4320
2dm-849,2,InBr,P4/nmm,2482,FALSE,bottom-up,32,92,
2dm-85,2,GdCl3,C2/m,2312,TRUE,bottom-up,0,69,2dm-3657
2dm-850,2,AuF,P4/nmm,0,FALSE,bottom-up,543,348,2dm-4861
2dm-851,2,Al4S3,Pmn2_1,861,FALSE,bottom-up,286,123,2dm-3571
2dm-852,2,HfF,P-3m1,0,FALSE,bottom-up,113,58,2dm-4412
2dm-853,2,SbCl3,P2_1/c,3337,FALSE,bottom-up,19,81,2dm-4881
2dm-854,2,PCl3,C2/m,2591,FALSE,bottom-up,291,70,2dm-3868
2dm-855,2,Be2Ir,P4/mmm,0,FALSE,bottom-up,345,504,2dm-3380
2dm-856,2,TiBr2,P2_1/m,258,FALSE,bottom-up,0,,2dm-4652
2dm-857,2,Al2Se,P3,146,TRUE,bottom-up,620,358,2dm-5781
2dm-859,2,HfF2,P2_1/m,1408,FALSE,bottom-up,416,125,
2dm-86,2,RhI3,C2/m,1241,FALSE,bottom-up,0,90,2dm-3776
2dm-860,2,GeAs3,P-3m1,0,FALSE,bottom-up,260,338,2dm-5824
2dm-861,2,AlS,P-1,1917,FALSE,bottom-up,33,62,2dm-5155
2dm-862,2,AlBr3,Pmc2_1,3079,TRUE,bottom-up,68,89,2dm-3521
2dm-863,2,Ag18Se11,P1,0,FALSE,bottom-up,61,,
2dm-864,2,Ca2Sb,P-3m1,0,FALSE,bottom-up,481,464,2dm-3665
2dm-865,2,HfHg,P4/nmm,0,FALSE,bottom-up,238,273,2dm-4601
2dm-866,2,Sb2S3,Pc,1766,FALSE,bottom-up,56,143,2dm-4755
2dm-868,2,AlSe,P-6m2,1929,FALSE,bottom-up,0,58,2dm-3099
2dm-869,2,TbI3,Pmmn,1998,FALSE,bottom-up,7,94,2dm-3753
2dm-87,2,GaTe,C2/m,994,FALSE,bottom-up,63,90,2dm-3756
2dm-870,2,YBr,P-3m1,0,FALSE,bottom-up,24,40,2dm-3544
2dm-871,2,NdBr2,P4/mmm,0,FALSE,bottom-up,0,90,2dm-3508
2dm-872,2,NdI3,Pmmn,1892,FALSE,bottom-up,0,97,2dm-3780
2dm-873,2,VBr5,P-1,456,FALSE,bottom-up,0,78,
2dm-874,2,Sr5Rh,Pmc2_1,0,FALSE,bottom-up,155,,2dm-5064
2dm-875,2,SmF3,Pmmn,7077,TRUE,bottom-up,118,203,2dm-3699
2dm-876,2,SeO2,P2_1/c,2663,FALSE,bottom-up,67,,2dm-3694
2dm-877,2,SbF3,C2/m,2723,TRUE,bottom-up,183,79,2dm-3868
2dm-878,2,CCl3,P1,1250,FALSE,bottom-up,335,72,2dm-5235
2dm-879,2,NiAs2,P-3,0,FALSE,bottom-up,260,203,2dm-5830
2dm-88,2,TiZn,P4/nmm,0,FALSE,bottom-up,325,320,2dm-3161
2dm-880,2,BaF2,P-4m2,5738,FALSE,bottom-up,382,319,2dm-4009
2dm-881,2,TlAs3,P-3m1,0,FALSE,bottom-up,239,354,
2dm-882,2,Ru4Se5,P4/n,0,FALSE,bottom-up,145,,2dm-4626
2dm-883,2,As4Br,P2/m,0,FALSE,bottom-up,41,76,2dm-5639
2dm-884,2,Al4Te3,Pmn2_1,859,FALSE,bottom-up,242,148,2dm-3571
2dm-885,2,VTe3,P2_1/m,0,FALSE,bottom-up,48,86,2dm-4511
2dm-886,2,DyBr3,Pmmn,2917,FALSE,bottom-up,0,84,2dm-3439
2dm-887,2,C3Br8,P1,64,FALSE,bottom-up,693,-82,2dm-3403
2dm-888,2,Nb6O13,Pmma,0,FALSE,bottom-up,83,,2dm-4762
2dm-889,2,NF3,C2/m,0,FALSE,bottom-up,0,,2dm-3868
2dm-89,2,PO2,Pmn2_1,5178,FALSE,bottom-up,62,,2dm-3642
2dm-890,2,U2Se5,P2/m,0,FALSE,bottom-up,7,34,2dm-4396
2dm-891,2,Te3N2,Pc,965,FALSE,bottom-up,591,116,2dm-4755
2dm-892,2,Se3N2,P2_1/m,53,FALSE,bottom-up,805,-5,2dm-3583
2dm-893,2,Bi2Te5,P2_1/c,587,FALSE,bottom-up,158,47,
2dm-894,2,Te5P2,P2_1/c,0,FALSE,bottom-up,234,96,
2dm-895,2,CrI2,P4/mbm,0,FALSE,bottom-up,109,,2dm-5814
2dm-896,2,NbS2,P-1,152,FALSE,bottom-up,27,93,2dm-4500
2dm-897,2,BrO2,P2_1/c,1428,TRUE,bottom-up,0,59,2dm-5766
2dm-898,2,Te5N2,P2_1/c,0,FALSE,bottom-up,576,63,
2dm-899,2,In2Te,P3,998,FALSE,bottom-up,125,,2dm-5781
2dm-9,2,AuBr,P3m1,149,TRUE,bottom-up,,182,2dm-3766
2dm-90,2,AgS,P2/m,987,FALSE,bottom-up,0,227,2dm-3506
2dm-900,2,Ga2Te,P3,996,FALSE,bottom-up,259,,2dm-5781
2dm-901,2,In2Se,P3,842,TRUE,bottom-up,130,161,2dm-4097
2dm-902,2,In2Te,P3,978,FALSE,bottom-up,125,,2dm-4097
2dm-903,2,Ga2Te,P3,1017,FALSE,bottom-up,258,222,2dm-4097
2dm-904,2,B2Se,P3,967,FALSE,bottom-up,363,,2dm-4097
2dm-905,2,PbN,C2/m,0,FALSE,bottom-up,829,,2dm-3474
2dm-906,2,As2Se5,P2_1/c,955,FALSE,bottom-up,66,42,
2dm-907,2,MnI3,P-3m1,258,TRUE,bottom-up,60,134,2dm-3697
2dm-908,2,VS2,P-1,15,TRUE,bottom-up,21,88,2dm-4500
2dm-909,2,Al2Se,P3,299,TRUE,bottom-up,564,379,2dm-4097
2dm-91,2,BeCl2,P-3m1,5847,FALSE,bottom-up,290,60,2dm-4717
2dm-910,2,Ga2Se,P3,1050,FALSE,bottom-up,273,196,2dm-4097
2dm-911,2,PCl3,Pmn2_1,4020,TRUE,bottom-up,24,80,2dm-3709
2dm-912,2,Ta3Br8,P3m1,275,FALSE,bottom-up,87,79,2dm-5206
2dm-913,2,InCl,Pbcm,2955,TRUE,bottom-up,31,81,2dm-4627
2dm-914,2,NiSn4,P4/nbm,0,FALSE,bottom-up,162,,2dm-3559
2dm-915,2,Be5Rh,Pmc2_1,0,FALSE,bottom-up,492,341,2dm-5064
2dm-916,2,ZnCl2,P31m,4539,FALSE,bottom-up,69,65,2dm-5582
2dm-917,2,Ca2Co,P4/mmm,0,FALSE,bottom-up,466,233,2dm-3380
2dm-918,2,PdPb4,P4/nbm,0,FALSE,bottom-up,89,181,2dm-3525
2dm-92,2,ZrBr3,C2/m,364,FALSE,bottom-up,45,76,2dm-3906
2dm-920,2,La2Br3,C2/m,212,FALSE,bottom-up,50,,2dm-3786
2dm-921,2,Ge3Rh,P4/mbm,0,FALSE,bottom-up,275,,
2dm-922,2,Ga4S3,Pmn2_1,1325,FALSE,bottom-up,122,124,2dm-3571
2dm-923,2,Ge2O3,P2_1/c,3528,FALSE,bottom-up,83,27,2dm-3613
2dm-924,2,As4F,P2/m,0,FALSE,bottom-up,104,81,2dm-5639
2dm-925,2,WCl2,P4/mbm,2816,FALSE,bottom-up,0,,2dm-5814
2dm-926,2,Al2Se3,P-62m,2860,TRUE,bottom-up,280,153,2dm-3796
2dm-927,2,Ba5Y,P1,0,FALSE,bottom-up,363,274,2dm-4891
2dm-928,2,TeRh,P4/nmm,0,FALSE,bottom-up,80,,2dm-4022
2dm-929,2,ReI2,P-3m1,0,FALSE,bottom-up,691,102,2dm-3606
2dm-93,2,PO2,P2_1/m,3406,TRUE,bottom-up,,23,2dm-4089
2dm-930,2,Al2Te3,P-62m,0,FALSE,bottom-up,2124,2162,2dm-3796
2dm-932,2,CaPb2,P-3m1,0,FALSE,bottom-up,455,420,2dm-5517
2dm-933,2,Ba2Co,P4/mmm,0,FALSE,bottom-up,588,192,2dm-3380
2dm-934,2,Mg2Zn,P4/mmm,0,FALSE,bottom-up,312,294,2dm-5339
2dm-935,2,Ta3Cl8,P3m1,183,FALSE,bottom-up,110,74,2dm-5497
2dm-936,2,YCl2,P-6m2,395,FALSE,bottom-up,48,70,2dm-5867
2dm-937,2,TcCl2,P-3m1,0,FALSE,bottom-up,367,72,2dm-3606
2dm-938,2,ZnF2,P31m,4664,TRUE,bottom-up,73,53,2dm-5582
2dm-939,2,TeIr,P4/nmm,0,FALSE,bottom-up,245,139,2dm-4022
2dm-94,2,RhI2,P-3m1,0,FALSE,bottom-up,29,107,2dm-4963
2dm-940,2,BaBr2,P-4m2,4628,TRUE,bottom-up,252,320,2dm-4009
2dm-941,2,Te2Pd,P2_1/c,1269,FALSE,bottom-up,102,,2dm-5050
2dm-942,2,NbBr3,P-31m,0,FALSE,bottom-up,132,86,2dm-3549
2dm-943,2,Ba2Bi,P-3m1,0,FALSE,bottom-up,321,232,2dm-3279
2dm-944,2,HfC2,P4/nmm,0,FALSE,bottom-up,1645,669,2dm-3413
2dm-946,2,Ca2Zn,P4/mmm,0,FALSE,bottom-up,86,272,2dm-5339
2dm-947,2,HfZn,P4/nmm,0,FALSE,bottom-up,394,385,2dm-4601
2dm-948,2,AuBr2,P2_1/c,0,FALSE,bottom-up,66,104,2dm-3371
2dm-949,2,RuI3,P-31m,130,FALSE,bottom-up,0,,2dm-5148
2dm-95,2,TeC,Pmmn,0,FALSE,bottom-up,1533,68,2dm-3338
2dm-951,2,BeF2,P-4m2,8681,FALSE,bottom-up,115,46,2dm-4009
2dm-952,2,TmF2,P-3m1,0,FALSE,bottom-up,306,59,2dm-5020
2dm-953,2,In2Te3,P321,0,FALSE,bottom-up,1564,1699,2dm-3796
2dm-954,2,AuI2,P2_1/c,0,FALSE,bottom-up,61,,2dm-3371
2dm-955,2,PuI3,P-6m2,0,FALSE,bottom-up,308,230,2dm-5505
2dm-956,2,NdSn2,P4/mmm,0,FALSE,bottom-up,626,,2dm-3714
2dm-957,2,CuS,P2/m,682,FALSE,bottom-up,132,182,2dm-3506
2dm-958,2,GaCl,P4/nmm,3047,FALSE,bottom-up,93,78,
2dm-959,2,TbF,P-3m1,0,FALSE,bottom-up,315,59,2dm-3487
2dm-96,2,Sc2Pb,P-3m1,0,FALSE,bottom-up,973,839,2dm-3189
2dm-960,2,SmSn2,P4/mmm,0,FALSE,bottom-up,545,369,2dm-3160
2dm-961,2,CrS2,P2_1/m,0,FALSE,bottom-up,0,,2dm-5630
2dm-962,2,AlP,P4/nmm,1053,FALSE,bottom-up,310,90,2dm-3743
2dm-963,2,YC3,P-6m2,0,FALSE,bottom-up,1267,578,2dm-5552
2dm-964,2,CaAg,P6/mmm,0,FALSE,bottom-up,330,,2dm-5120
2dm-965,2,IrS,P4/nmm,0,FALSE,bottom-up,375,126,2dm-4022
2dm-966,2,InCl,P4/nmm,2894,FALSE,bottom-up,29,79,
2dm-967,2,TiSn2,P4/nmm,0,FALSE,bottom-up,389,309,2dm-3413
2dm-968,2,V3I8,P-3m1,10,FALSE,bottom-up,0,94,2dm-5206
2dm-969,2,V3F8,P-3m1,1,FALSE,bottom-up,114,,2dm-5497
2dm-97,2,Cu2S,Pmc2_1,694,FALSE,bottom-up,54,165,2dm-4629
2dm-970,2,PdI2,P-3m1,0,FALSE,bottom-up,167,136,2dm-3741
2dm-971,2,NdSi2,P4/mmm,0,FALSE,bottom-up,911,,2dm-3714
2dm-972,2,PrPb5,Pmmm,0,FALSE,bottom-up,350,384,2dm-5299
2dm-973,2,Sb3C,P-3m1,0,FALSE,bottom-up,834,186,2dm-5503
2dm-974,2,TiC2,P4/nmm,0,FALSE,bottom-up,1491,725,2dm-3413
2dm-975,2,Ge3Ir,P4/mbm,0,FALSE,bottom-up,310,,
2dm-976,2,TlBi3,P-3m1,2,TRUE,bottom-up,321,399,
2dm-978,2,UCl3,Pmmn,94,FALSE,bottom-up,0,89,2dm-3428
2dm-98,2,YbBr2,P-3m1,5153,FALSE,bottom-up,0,76,2dm-4965
2dm-980,2,SrI2,P-3m1,4072,FALSE,bottom-up,0,83,2dm-3734
2dm-981,2,NdF2,P4/mmm,0,FALSE,bottom-up,506,270,2dm-3508
2dm-982,2,Sr5Tm,P1,0,FALSE,bottom-up,363,284,2dm-4330
2dm-984,2,YF,P-3m1,0,FALSE,bottom-up,260,56,2dm-3610
2dm-985,2,PtPb3,P4/mbm,0,FALSE,bottom-up,104,152,2dm-5866
2dm-986,2,TaBr4,P4/mmm,0,FALSE,bottom-up,271,112,2dm-3290
2dm-987,2,Ca5Tm,P1,0,FALSE,bottom-up,360,282,2dm-4330
2dm-988,2,GaP,P4/nmm,0,FALSE,bottom-up,459,128,2dm-3743
2dm-989,2,AuCl2,P2_1/c,0,FALSE,bottom-up,80,105,2dm-3371
2dm-99,2,SmSe3,P4/nmm,0,FALSE,bottom-up,6,41,2dm-4364
2dm-990,2,As3Pb,P-3m1,418,FALSE,bottom-up,179,325,2dm-5503
2dm-991,2,SbBr3,P-31m,2443,FALSE,bottom-up,0,83,2dm-3628
2dm-992,2,Ca2Cd,P4/mmm,0,FALSE,bottom-up,265,298,2dm-5339
2dm-993,2,GeCl3,P1,2787,FALSE,bottom-up,64,61,2dm-5235
2dm-994,2,B2O,P3m1,0,FALSE,bottom-up,1932,211,2dm-4083
2dm-995,2,Ga3Co,P-6m2,0,FALSE,bottom-up,807,609,2dm-3758
2dm-996,2,WBr2,R-3m,0,FALSE,bottom-up,740,-166,2dm-4342
2dm-997,2,MgAg,P6/mmm,0,FALSE,bottom-up,571,416,2dm-5120
2dm-998,2,SiI3,P1,1271,TRUE,bottom-up,179,-6,2dm-5235