22,nelements,Formula,Spacegroup,Bandgap (meV),Is gap direct?,Discovery process,Decomposition energy (meV/atom),Exfoliation energy (meV/atom),Obtained from
2dm-3401,2,CoTe2,P-3m1,0,FALSE,top-down,61,165,mp-1009641
2dm-3403,2,Sn3F8,P2_1/c,3340,TRUE,top-down,15,81,mp-1443
2dm-3405,2,CuBr,P-6m2,1067,TRUE,top-down,60,179,mp-23227
2dm-3409,2,MoSe2,P-6m2,1423,TRUE,top-down,1,78,mp-1634
2dm-3413,2,ZrGe2,P4/nmm,0,FALSE,top-down,301,401,mp-2430
2dm-3415,2,BiSe,P2_1/c,28,TRUE,top-down,209,254,mp-1078607
2dm-3417,2,ZrTe3,Pmmn,0,FALSE,top-down,7,95,mp-2089
2dm-3420,2,YSb2,C222,0,FALSE,top-down,579,85,mp-1018112
2dm-3422,2,Cu2Te,P6/mmm,0,FALSE,top-down,136,38,mp-1861
2dm-3423,2,YCl3,P-31m,4977,FALSE,top-down,0,69,mp-27455
2dm-3424,2,GeS,Pmn2_1,1719,FALSE,top-down,29,129,mp-2242
2dm-3426,2,PdSe2,P2_1/c,1425,FALSE,top-down,7,166,mp-2418
2dm-3427,2,Cr3N2,C2,0,FALSE,top-down,985,956,mp-1014509
2dm-3428,2,UI3,Pmmn,34,FALSE,top-down,0,92,mp-23244
2dm-3431,2,UPb2,P-1,0,FALSE,top-down,289,146,mp-1077277
2dm-3432,2,NiCl2,P-3m1,810,FALSE,top-down,0,66,mp-27396
2dm-3438,2,LaSe,P4/nmm,0,FALSE,top-down,248,,mp-1065583
2dm-3439,2,DyCl3,Pmmn,3893,TRUE,top-down,0,81,mp-28448
2dm-3441,2,NiTe2,P-3m1,0,FALSE,top-down,54,171,mp-2578
2dm-3444,2,ZrCl,P-3m1,0,FALSE,top-down,0,52,mp-27440
2dm-3449,2,AgN3,Pccm,1828,FALSE,top-down,362,150,mp-2247
2dm-3453,2,BiTe,P-3m1,0,FALSE,top-down,6,,mp-23224
2dm-3455,2,GeI2,P-3m1,2131,FALSE,top-down,0,82,mp-27922
2dm-3456,2,YS,P4/nmm,0,FALSE,top-down,208,5,mp-22562
2dm-3457,2,Bi2Se3,P2_1/m,1277,FALSE,top-down,44,124,mp-23164
2dm-3458,2,RhCl3,P-31m,1737,FALSE,top-down,0,72,mp-27770
2dm-3459,2,InSe,P-6m2,1537,FALSE,top-down,1,63,mp-22691
2dm-3464,2,PbI2,P-3m1,2586,FALSE,top-down,7,85,mp-22883
2dm-3471,2,Hf3Te2,P4/mmm,0,FALSE,top-down,0,78,mp-28919
2dm-3474,2,SiP,C2/m,1951,FALSE,top-down,0,49,mp-2798
2dm-3478,2,PbBr2,P2_1/m,2819,FALSE,top-down,0,,mp-28077
2dm-3482,2,Cd3P2,P-4m2,844,TRUE,top-down,214,,mp-2441
2dm-3485,2,CdCl2,P-3m1,3947,TRUE,top-down,0,70,mp-22881
2dm-3486,2,CuTe,Pmmn,0,FALSE,top-down,0,79,mp-20826
2dm-3487,2,TbBr,P-3m1,0,FALSE,top-down,16,47,mp-27924
2dm-3488,2,Se2O5,P2_1/c,2990,TRUE,top-down,0,,mp-27358
2dm-3489,2,NaN3,Pmmm,1097,FALSE,top-down,975,,mp-22777
2dm-3493,2,CeSe2,P2_1/m,0,FALSE,top-down,185,110,mp-1080310
2dm-3495,2,AuI,Cmme,1768,FALSE,top-down,0,89,mp-27725
2dm-3496,2,Tl4O3,P2_1/m,1129,FALSE,top-down,0,43,mp-27684
2dm-3497,2,Te2W,P2_1/m,73,FALSE,top-down,0,84,mp-22693
2dm-3501,2,Mg2Si,P2/c,0,FALSE,top-down,533,476,mp-1074652
2dm-3502,2,TeI,Pmma,825,TRUE,top-down,25,98,mp-23273
2dm-3506,2,AuSe,P2/m,1237,FALSE,top-down,0,168,mp-2793
2dm-3508,2,NdI2,P4/mmm,0,FALSE,top-down,0,94,mp-28753
2dm-3513,2,TaS2,P-6m2,0,FALSE,top-down,2,88,mp-1984
2dm-3516,2,Sc7Cl10,C2/m,0,FALSE,top-down,2,,mp-27513
2dm-3517,2,CuBr,P4/nmm,1599,TRUE,top-down,2,73,mp-22917
2dm-3519,2,P2O5,Pmn2_1,5225,TRUE,top-down,41,117,mp-2173
2dm-3521,2,TlF3,Pmc2_1,2562,FALSE,top-down,0,170,mp-2632
2dm-3524,2,Te4O9,P-3,2600,FALSE,top-down,26,110,mp-27127
2dm-3525,2,Sn4Pt,P4/nbm,0,FALSE,top-down,147,246,mp-20662
2dm-3526,2,BiS,Pmc2_1,0,FALSE,top-down,229,9,mp-28677
2dm-3527,2,CoCl2,P-3m1,109,FALSE,top-down,0,67,mp-23240
2dm-3530,2,GaSe,P-6m2,1893,FALSE,top-down,2,43,mp-1943
2dm-3531,2,Sb2Se3,P2_1/m,875,FALSE,top-down,0,130,mp-2160
2dm-3540,2,MgI2,P-3m1,3656,FALSE,top-down,0,79,mp-23205
2dm-3541,2,ThI4,P2_1/c,1841,TRUE,top-down,0,88,mp-27697
2dm-3542,2,ZrSe2,P-3m1,458,FALSE,top-down,0,95,mp-2076
2dm-3544,2,ScCl,P-3m1,0,FALSE,top-down,23,50,mp-27507
2dm-3549,2,VCl3,P-31m,1,TRUE,top-down,0,73,mp-28117
2dm-3550,2,SbI3,P-31m,2172,FALSE,top-down,0,97,mp-23281
2dm-3552,2,Te4Pt3,P2/m,0,FALSE,top-down,401,-154,mp-21042
2dm-3555,2,SiTe2,P-3m1,0,FALSE,top-down,53,91,mp-2755
2dm-3557,2,HgI2,C2/m,1959,FALSE,top-down,40,,mp-23173
2dm-3559,2,PtPb4,P4/nbm,0,FALSE,top-down,53,185,mp-21296
2dm-3561,2,PbO,P4/nmm,2619,TRUE,top-down,13,85,mp-19921
2dm-3562,2,PtI2,P2_1/c,1471,FALSE,top-down,0,132,mp-28319
2dm-3563,2,FeSi2,P4/mmm,0,FALSE,top-down,637,615,mp-20738
2dm-3564,2,Ce2O3,P321,0,FALSE,top-down,826,755,mp-20169
2dm-3571,2,In4Se3,Pmn2_1,1123,FALSE,top-down,80,161,mp-19932
2dm-3574,2,FeCl2,P-3m1,0,FALSE,top-down,0,64,mp-23229
2dm-3577,2,In2O3,P321,1922,TRUE,top-down,724,894,mp-22323
2dm-3582,2,LaI3,Pmmn,2117,TRUE,top-down,0,97,mp-27979
2dm-3583,2,Sb2S3,P2_1/m,1227,FALSE,top-down,0,139,mp-2809
2dm-3587,2,Te2Au,P-3m1,0,FALSE,top-down,231,326,mp-1662
2dm-3589,2,Pr2Br5,P2_1/m,349,FALSE,top-down,0,93,mp-23169
2dm-3594,2,WSe2,P-6m2,1527,TRUE,top-down,1,77,mp-1821
2dm-3600,2,TbCl,P-3m1,0,FALSE,top-down,53,53,mp-27923
2dm-3606,2,MnBr2,P-3m1,1518,FALSE,top-down,2,73,mp-28306
2dm-3607,2,TiCl2,P-3m1,0,FALSE,top-down,55,90,mp-28116
2dm-3608,2,GaS,P-6m2,2477,FALSE,top-down,1,39,mp-2507
2dm-3610,2,LaBr,P-3m1,0,FALSE,top-down,105,55,mp-27679
2dm-3611,2,MoCl3,C2/m,126,TRUE,top-down,60,70,mp-22853
2dm-3613,2,Pb2O3,P2_1/c,1873,FALSE,top-down,90,141,mp-20078
2dm-3615,2,SiAs,C2/m,1896,FALSE,top-down,0,71,mp-1863
2dm-3618,2,RhBr3,P-31m,1498,FALSE,top-down,0,80,mp-27871
2dm-3619,2,GeAs2,Pmc2_1,1196,FALSE,top-down,0,75,mp-17524
2dm-3622,2,VCl2,P-3m1,1296,FALSE,top-down,0,71,mp-22877
2dm-3623,2,CrI2,C2/m,253,FALSE,top-down,0,84,mp-27215
2dm-3628,2,BiI3,P-31m,2533,FALSE,top-down,9,95,mp-22849
2dm-3629,2,SnO,P4/nmm,3023,FALSE,top-down,37,100,mp-2097
2dm-3638,2,CuI,P4/nmm,2072,TRUE,top-down,14,79,mp-22863
2dm-3640,2,LaI2,P4/mmm,0,FALSE,top-down,0,85,mp-23194
2dm-3642,2,AsO2,Pmn2_1,3243,TRUE,top-down,80,188,mp-27356
2dm-3652,2,CeGe2,P4/mmm,0,FALSE,top-down,546,702,mp-21055
2dm-3654,2,SnS,Pmn2_1,1559,FALSE,top-down,31,141,mp-2231
2dm-3656,2,TiTe2,P-3m1,0,FALSE,top-down,0,110,mp-1907
2dm-3657,2,GdBr3,P-31m,2279,TRUE,top-down,0,76,mp-27182
2dm-3663,2,IrBr3,P-31m,1815,FALSE,top-down,0,80,mp-27397
2dm-3664,2,V2O5,P2_1/m,2433,FALSE,top-down,33,67,mp-25643
2dm-3665,2,Ba2N,P-3m1,0,FALSE,top-down,114,209,mp-1892
2dm-3669,2,PbO,Pbcm,2646,FALSE,top-down,26,69,mp-20878
2dm-3670,2,Nb2Se3,P2_1/m,11,FALSE,top-down,48,137,mp-2330
2dm-3675,2,UBr4,C2/m,191,FALSE,top-down,0,71,mp-27153
2dm-3676,2,IO3,C2/m,1944,FALSE,top-down,57,76,mp-23315
2dm-3680,2,Zn3As2,P-4m2,813,TRUE,top-down,201,,mp-15700
2dm-3681,2,AlCl3,P-31m,5524,TRUE,top-down,0,66,mp-25469
2dm-3684,2,Bi9I2,P2_1/m,0,FALSE,top-down,70,97,mp-28149
2dm-3686,2,HgI2,P-4m2,1858,FALSE,top-down,13,108,mp-23192
2dm-3688,2,NbO2,P-6m2,0,FALSE,top-down,282,67,mp-25214
2dm-3692,2,NiI2,P-3m1,142,FALSE,top-down,0,79,mp-27638
2dm-3694,2,TeO2,P2_1/c,2536,FALSE,top-down,17,89,mp-2125
2dm-3695,2,Te3Cl2,P2_1/c,1367,TRUE,top-down,47,,mp-27628
2dm-3696,2,CdBr2,P-3m1,3285,TRUE,top-down,4,75,mp-27934
2dm-3697,2,ReCl3,P-3m1,1206,FALSE,top-down,0,59,mp-23174
2dm-3699,2,SmBr3,Pmmn,2990,TRUE,top-down,0,87,mp-27976
2dm-3706,2,ZrCl2,P-6m2,1607,FALSE,top-down,0,69,mp-23162
2dm-3709,2,SbF3,Pmn2_1,4599,FALSE,top-down,0,133,mp-1880
2dm-3714,2,NdGe2,P4/mmm,0,FALSE,top-down,735,754,mp-2129
2dm-3716,2,LaCl,P-3m1,0,FALSE,top-down,126,29,mp-27929
2dm-3719,2,SnF4,P4/mmm,3914,FALSE,top-down,0,104,mp-2706
2dm-3724,2,SnI2,C2/m,2097,FALSE,top-down,0,,mp-27194
2dm-3725,2,Nb3Cl7,Pmna,1056,FALSE,top-down,0,,mp-27880
2dm-3728,2,MnI2,P-3m1,1106,FALSE,top-down,0,82,mp-28013
2dm-3729,2,Ca2N,P-3m1,0,FALSE,top-down,139,260,mp-2686
2dm-3730,2,TiSe2,P-3m1,0,FALSE,top-down,0,92,mp-2194
2dm-3731,2,TiS2,P-3m1,26,FALSE,top-down,1,88,mp-2156
2dm-3733,2,TiBr2,P-3m1,0,FALSE,top-down,38,61,mp-27785
2dm-3734,2,MgCl2,P-3m1,6068,TRUE,top-down,2,63,mp-23210
2dm-3735,2,SmS,P4/nmm,0,FALSE,top-down,232,5,mp-1879
2dm-3738,2,ThI2,P-6m2,31,FALSE,top-down,21,97,mp-27652
2dm-3739,2,Te2Rh,P-3m1,0,FALSE,top-down,119,200,mp-228
2dm-3741,2,NiBr2,P-3m1,505,FALSE,top-down,0,72,mp-27637
2dm-3743,2,InBi,P4/nmm,0,FALSE,top-down,124,253,mp-23313
2dm-3745,2,MnCl2,P-3m1,1765,FALSE,top-down,0,67,mp-28233
2dm-3747,2,ZrSe3,Pmmn,448,FALSE,top-down,0,54,mp-1683
2dm-3749,2,WS2,P-6m2,1802,TRUE,top-down,1,56,mp-224
2dm-3750,2,CuBr2,C2/m,0,FALSE,top-down,0,,mp-23219
2dm-3751,2,MnO2,P-3m1,1948,FALSE,top-down,14,56,mp-25547
2dm-3753,2,TbCl3,Pmmn,3869,TRUE,top-down,8,82,mp-23293
2dm-3756,2,InSe,C2/m,2101,FALSE,top-down,45,151,mp-21405
2dm-3757,2,Te2Ir,P-3m1,0,FALSE,top-down,141,210,mp-2285
2dm-3758,2,Al3Ir,P-6m2,0,FALSE,top-down,1122,1057,mp-2294
2dm-3762,2,TlI,P4/nmm,2705,FALSE,top-down,45,136,mp-22858
2dm-3766,2,AgI,P3m1,1748,TRUE,top-down,91,216,mp-580941
2dm-3767,2,BiSe,P-3m1,0,FALSE,top-down,8,,mp-27902
2dm-3768,2,CrBr3,P-31m,1403,FALSE,top-down,0,79,mp-27734
2dm-3769,2,AlO2,Pmmn,0,FALSE,top-down,379,157,mp-1096799
2dm-3771,2,As2O3,P2_1,3901,FALSE,top-down,3,80,mp-1581
2dm-3772,2,TlF,P4/nmm,3577,FALSE,top-down,12,65,mp-557835
2dm-3774,2,AlO2,P-4m2,0,FALSE,top-down,476,300,mp-1096799
2dm-3775,2,TlF,P4mm,2339,FALSE,top-down,716,921,mp-557835
2dm-3776,2,IrCl3,P-31m,2134,FALSE,top-down,1,73,mp-27666
2dm-3779,2,As2O3,Pc,4322,TRUE,top-down,13,53,mp-1582
2dm-3780,2,NdBr3,Pmmn,2985,TRUE,top-down,0,90,mp-27975
2dm-3781,2,GaSe,P-6m2,755,FALSE,top-down,440,79,mp-568128
2dm-3782,2,GaSe,P3m1,102,FALSE,top-down,548,267,mp-568128
2dm-3783,2,Tl2O3,P-3m1,662,TRUE,top-down,144,47,mp-684956
2dm-3784,2,MoO3,Pm,1095,FALSE,top-down,67,133,mp-510584
2dm-3786,2,Y2Cl3,C2/m,787,FALSE,top-down,0,87,mp-27678
2dm-3788,2,RbC2,P4/nmm,499,TRUE,top-down,1347,78,mp-1077369
2dm-3791,2,MoO3,P2_1/m,1506,FALSE,top-down,32,38,mp-510584
2dm-3794,2,AgI,P-3m1,2028,TRUE,top-down,23,33,mp-580941
2dm-3796,2,B2S3,P-62m,1859,TRUE,top-down,97,113,mp-866066
2dm-3801,2,Ta2Se,P4/nmm,0,FALSE,top-down,0,59,mp-8732
2dm-3804,2,Na2Cl,P-3m1,0,FALSE,top-down,285,199,mp-990084
2dm-3805,2,TiBr3,C2/m,0,FALSE,top-down,2,79,mp-28214
2dm-3809,2,HfS3,Pmmn,1146,FALSE,top-down,0,50,mp-9922
2dm-3816,2,TiO2,P-3m1,2653,FALSE,top-down,151,8,mvc-11600
2dm-3817,2,Pr2I5,P2_1/m,155,FALSE,top-down,0,88,mp-22854
2dm-3819,2,RbC2,P4mm,933,FALSE,top-down,2133,982,mp-1077369
2dm-3820,2,MgBr2,P-3m1,4851,TRUE,top-down,0,70,mp-30034
2dm-3826,2,SbO2,P6/mmm,0,FALSE,top-down,1718,89,mvc-11038
2dm-3828,2,I2O5,P2_1,2727,TRUE,top-down,0,166,mp-23261
2dm-3829,2,PuBr3,Pmmn,0,FALSE,top-down,0,649,mp-27974
2dm-3834,2,HfS2,P-3m1,1302,FALSE,top-down,0,86,mp-985829
2dm-3836,2,CrCl3,P-31m,1613,FALSE,top-down,2,50,mp-569890
2dm-3847,2,ZrTe5,Pmmn,22,TRUE,top-down,0,90,mp-605
2dm-3859,2,Ag2S,P2_1/m,1569,TRUE,top-down,51,,mp-556225
2dm-3868,2,BiBr3,C2/m,2970,FALSE,top-down,8,79,mp-568301
2dm-3869,2,Rb2O,P31m,316,FALSE,top-down,10,51,mp-776922
2dm-3874,2,SbTe,P-3m1,0,FALSE,top-down,857,,mp-7716
2dm-3879,2,SiO2,C2,3431,FALSE,top-down,683,724,mp-673168
2dm-3895,2,VO2,P6/mmm,0,FALSE,top-down,2285,55,mvc-11154
2dm-3899,2,BiSe,P4/nmm,0,FALSE,top-down,273,-5,mp-570286
2dm-3902,2,PuI3,Pmmn,0,FALSE,top-down,0,69,mp-27978
2dm-3906,2,TiCl3,C2/m,0,FALSE,top-down,5,61,mp-569756
2dm-3912,2,FeO2,P-3m1,0,FALSE,top-down,251,75,mvc-13111
2dm-3917,2,ReSe2,P-1,1246,FALSE,top-down,0,74,mp-541582
2dm-3921,2,NdTe3,P4/nmm,0,FALSE,top-down,0,55,mp-740
2dm-3922,2,TlP5,Pmc2_1,1346,TRUE,top-down,0,87,mp-27411
2dm-3941,2,NbSe2,P-6m2,0,FALSE,top-down,5,,mp-7597
2dm-3946,2,HoSb2,C222,0,FALSE,top-down,553,81,mp-7925
2dm-3966,2,HgI2,P-4m2,1900,FALSE,top-down,6,,mp-567471
2dm-3968,2,Bi2O3,Pm,2369,FALSE,top-down,162,181,mp-37036
2dm-3977,2,GeTe,P3m1,1750,FALSE,top-down,75,230,mp-938
2dm-4006,2,ReS2,P-1,1424,TRUE,top-down,0,71,mp-572758
2dm-4009,2,MgCl2,P-4m2,5336,FALSE,top-down,85,73,mp-570922
2dm-4011,2,TaF5,Pmma,4338,TRUE,top-down,257,33,mvc-6067
2dm-4013,2,Cr2S5,Pmmn,295,FALSE,top-down,148,,mvc-11309
2dm-4014,2,Mn2F7,P2/c,215,TRUE,top-down,52,41,mp-765923
2dm-4022,2,CoSe,P4/nmm,0,FALSE,top-down,16,104,mp-604908
2dm-4023,2,AuSe,C2/m,0,FALSE,top-down,10,74,mp-570325
2dm-4024,2,Bi2O3,P1,1083,FALSE,top-down,136,45,mp-684617
2dm-4032,2,Bi3Se4,P-3m1,0,FALSE,top-down,55,,mp-542615
2dm-4039,2,TiO2,P6/mmm,0,FALSE,top-down,2729,49,mvc-13391
2dm-4040,2,InBr3,P-31m,2932,FALSE,top-down,0,77,mp-570219
2dm-4050,2,MoO3,Pc,677,TRUE,top-down,66,87,mp-715574
2dm-4062,2,NiP2,P4/mbm,72,TRUE,top-down,342,,mp-486
2dm-4063,2,GaS,P-3m1,2301,FALSE,top-down,7,54,mp-9889
2dm-4065,2,Si2O5,Pmna,0,FALSE,top-down,419,235,mp-862998
2dm-4068,2,MoN2,C2/m,1257,FALSE,top-down,252,115,mvc-13455
2dm-4073,2,RuF4,P2_1/c,545,FALSE,top-down,0,53,mp-974434
2dm-4083,2,Tl2O,P-3m1,939,FALSE,top-down,13,76,mp-551470
2dm-4084,2,Cr3O8,P-3m1,0,FALSE,top-down,379,,mvc-8154
2dm-4089,2,SbO2,P2_1/m,2834,FALSE,top-down,82,17,mvc-9477
2dm-4094,2,Hg3Au,P6/mmm,0,FALSE,top-down,253,,mp-973626
2dm-4097,2,Tl2S,P3,1453,TRUE,top-down,26,106,mp-667
2dm-4098,2,Ga2Te3,Cm,0,FALSE,top-down,136,12,mp-32580
2dm-4111,2,NbSe3,P2_1/m,0,FALSE,top-down,0,57,mp-525
2dm-4128,2,VF4,P2_1/c,1906,TRUE,top-down,44,37,mp-863878
2dm-4136,2,PtS2,P-3m1,1822,FALSE,top-down,0,97,mp-762
2dm-4138,2,CrTe3,Pmna,279,FALSE,top-down,21,97,mp-540922
2dm-4143,2,Ca3Zn,Pmmn,0,FALSE,top-down,162,,mp-30485
2dm-4148,2,YGe3,Pmm2,0,FALSE,top-down,493,,mp-29772
2dm-4154,2,Re2O7,Pmma,0,FALSE,top-down,125,41,mvc-3381
2dm-4164,2,CrO2,P6/mmm,0,FALSE,top-down,1749,86,mvc-3500
2dm-4169,2,MoCl2,P4/mbm,2451,FALSE,top-down,0,66,mp-620029
2dm-4178,2,PtO2,P-3m1,1737,FALSE,top-down,4,80,mp-7868
2dm-4185,2,Mn2F5,P2/c,0,FALSE,top-down,112,103,mp-765924
2dm-4188,2,CaO2,P4/mmm,2914,FALSE,top-down,40,143,mp-634859
2dm-4198,2,FeF4,Pc,1547,FALSE,top-down,153,180,mvc-13960
2dm-4209,2,BN,P4/mbm,4097,FALSE,top-down,320,68,mp-569655
2dm-4224,2,VSe,P4/nmm,0,FALSE,top-down,133,88,mp-604914
2dm-4242,2,Ta2O5,Pm,3127,TRUE,top-down,313,302,mp-676422
2dm-4243,2,FeI2,P-3m1,0,FALSE,top-down,0,81,mp-571122
2dm-4245,2,W2O5,Pmmn,2432,TRUE,top-down,263,200,mvc-8648
2dm-4246,2,TiS3,Pmmn,275,TRUE,top-down,0,54,mp-9920
2dm-4253,2,Te3As2,P2_1/m,570,FALSE,top-down,7,114,mp-484
2dm-4255,2,Te2Pt,P-3m1,653,FALSE,top-down,0,145,mp-399
2dm-4270,2,TaSe2,P-6m2,0,FALSE,top-down,3,69,mp-500
2dm-4272,2,CoO2,P-3m1,0,FALSE,top-down,306,,mvc-12841
2dm-4274,2,MnO2,Pmmn,0,FALSE,top-down,167,53,mp-543057
2dm-4298,2,V2O5,P2_1/m,1774,FALSE,top-down,38,38,mp-510568
2dm-4301,2,NbS3,P2_1/m,406,FALSE,top-down,0,46,mp-562100
2dm-4305,2,Ag2S,P2_1,1686,FALSE,top-down,21,150,mp-31053
2dm-4306,2,In2Te5,C2,1103,FALSE,top-down,5,109,mp-582549
2dm-4316,2,AlF3,Pmma,7780,FALSE,top-down,91,58,mp-635425
2dm-4320,2,Tb5Br8,P2/m,0,FALSE,top-down,33,103,mp-31007
2dm-4324,2,CoS2,P-3m1,0,FALSE,top-down,121,125,mvc-11233
2dm-4327,2,BiO2,Pmc2_1,365,FALSE,top-down,111,59,mvc-5760
2dm-4330,2,TmMg5,Cm,0,FALSE,top-down,316,290,mp-978991
2dm-4341,2,VF4,P2_1/c,2371,FALSE,top-down,0,48,mp-554799
2dm-4342,2,CrF2,P2_1/c,3055,FALSE,top-down,0,152,mp-554340
2dm-4344,2,Al2Os,P4/mmm,0,FALSE,top-down,630,740,mp-7188
2dm-4348,2,Bi2Pd,P2_1/m,0,FALSE,top-down,119,223,mp-568746
2dm-4350,2,FeS2,Pcca,0,FALSE,top-down,426,94,mp-615366
2dm-4351,2,Ta2Te3,C2/m,0,FALSE,top-down,0,78,mp-542634
2dm-4359,2,PbF4,P4/mmm,2519,FALSE,top-down,0,95,mp-341
2dm-4362,2,HoS,P4mm,0,FALSE,top-down,778,7,mp-554055
2dm-4364,2,SmTe3,P4/nmm,0,FALSE,top-down,0,57,mp-9399
2dm-4374,2,CuS2,Pm,0,FALSE,top-down,155,-266,mp-850099
2dm-4377,2,VS2,Pmmm,0,FALSE,top-down,583,,mp-849098
2dm-4378,2,TiO2,P2_1/m,2671,FALSE,top-down,149,39,mvc-12466
2dm-4396,2,U2Te5,Pmmm,0,FALSE,top-down,3,50,mp-573810
2dm-4402,2,CdI2,P-3m1,2476,FALSE,top-down,4,83,mp-570610
2dm-4404,2,Fe3Se4,C2/m,0,FALSE,top-down,181,47,mp-569240
2dm-4405,2,Hg3As,P6/mmm,0,FALSE,top-down,383,,mp-973599
2dm-4406,2,Bi2Te3,P-3m1,970,FALSE,top-down,0,77,mp-34202
2dm-4412,2,ZrBr,P-3m1,0,FALSE,top-down,0,55,mp-504594
2dm-4424,2,HfSe2,P-3m1,655,FALSE,top-down,0,91,mp-985831
2dm-4425,2,HfTe2,P-3m1,0,FALSE,top-down,0,103,mp-32887
2dm-4429,2,FeCl3,P1,661,FALSE,top-down,14,,mp-676241
2dm-4436,2,PtI4,Pca2_1,894,TRUE,top-down,0,,mp-669496
2dm-4444,2,TiF4,P1,4306,FALSE,top-down,68,79,mvc-13239
2dm-4448,2,Sc5Cl8,P2/m,0,FALSE,top-down,1,79,mp-542449
2dm-4449,2,W3O8,P2/m,1214,FALSE,top-down,270,11,mvc-15486
2dm-4453,2,Bi2Se3,P-3m1,889,FALSE,top-down,0,67,mp-541837
2dm-4454,2,TiO2,Pmm2,2707,TRUE,top-down,307,3,mp-636827
2dm-4463,2,Mo3O8,Cm,1246,FALSE,top-down,260,64,mp-715479
2dm-4469,2,GePt,Pmmn,0,FALSE,top-down,298,,mp-542640
2dm-4472,2,Cr3O8,P-3m1,670,FALSE,top-down,122,58,mp-561779
2dm-4478,2,GeSe,Pmn2_1,1254,FALSE,top-down,17,130,mp-700
2dm-4486,2,YBr3,P-31m,4044,FALSE,top-down,0,77,mp-754815
2dm-4487,2,RuCl3,P-31m,3,TRUE,top-down,33,74,mp-570997
2dm-4488,2,LaO3,Cmmm,0,FALSE,top-down,136,445,mp-684706
2dm-4489,2,H3Pt,P6/mmm,0,FALSE,top-down,417,124,mp-977343
2dm-4491,2,AlP,P4/mbm,2126,FALSE,top-down,668,0,mp-997569
2dm-4492,2,BiO2,P2_1/m,653,FALSE,top-down,171,37,mvc-9397
2dm-4494,2,CuO2,Pmmm,0,FALSE,top-down,970,442,mp-705439
2dm-4500,2,TaSe2,P-3,159,FALSE,top-down,7,92,mp-542495
2dm-4502,2,MoF4,Pc,2786,FALSE,top-down,52,44,mvc-13531
2dm-4510,2,FeS2,P-3m1,0,FALSE,top-down,206,58,mvc-11234
2dm-4511,2,TaSe3,P2_1/m,0,FALSE,top-down,0,65,mp-29652
2dm-4513,2,BeF2,C2,7188,FALSE,top-down,223,259,mp-684652
2dm-4516,2,FeO3,C2/m,0,FALSE,top-down,137,35,mp-863847
2dm-4519,2,CrBr2,C2/m,447,FALSE,top-down,73,74,mp-567624
2dm-4526,2,MoO3,P31m,91,FALSE,top-down,965,670,mvc-13534
2dm-4540,2,NpBr3,Pmmn,0,FALSE,top-down,0,89,mp-567519
2dm-4553,2,W3O8,P-3m1,1656,FALSE,top-down,324,57,mvc-8147
2dm-4563,2,Tb2C,P-3m1,0,FALSE,top-down,252,367,mp-692
2dm-4567,2,WO2,P6/mmm,0,FALSE,top-down,2136,98,mvc-11221
2dm-4574,2,GeTe,Pbcm,0,FALSE,top-down,109,70,mp-628781
2dm-4575,2,SrBr3,P6/mmm,0,FALSE,top-down,520,,mp-980667
2dm-4576,2,AuBr,Cmme,1903,FALSE,top-down,0,84,mp-505366
2dm-4578,2,UF6,P2_1/m,2763,FALSE,top-down,14,,mp-672341
2dm-4588,2,GeAs,C2/m,1650,FALSE,top-down,0,85,mp-9548
2dm-4593,2,AgI2,P-4m2,0,FALSE,top-down,142,94,mp-33154
2dm-4594,2,In3Te4,P-3m1,0,FALSE,top-down,36,,mp-541885
2dm-4601,2,TiCd,P4/nmm,0,FALSE,top-down,211,255,mp-30500
2dm-4626,2,Fe4S5,P4/n,0,FALSE,top-down,59,2,mp-850083
2dm-4627,2,TlF,Pbcm,3628,FALSE,top-down,7,66,mp-720
2dm-4629,2,Ag2Se,Pmma,997,FALSE,top-down,51,196,mp-568971
2dm-4640,2,Ga2Os,C222,0,FALSE,top-down,1390,,mp-570875
2dm-4651,2,Mo3O7,Pmn2_1,796,TRUE,top-down,247,,mvc-9246
2dm-4652,2,ZrI2,P2_1/m,432,FALSE,top-down,1,77,mp-570506
2dm-4660,2,MoN,C2/m,181,TRUE,top-down,269,110,mvc-14624
2dm-4672,2,MgCl2,Cmmm,5475,TRUE,top-down,126,45,mp-570782
2dm-4681,2,PrS3,P6/mmm,0,FALSE,top-down,605,518,mp-975653
2dm-4682,2,TeI,C2/m,1044,FALSE,top-down,4,95,mp-569766
2dm-4685,2,Cr4O9,P4/n,405,FALSE,top-down,202,64,mvc-10495
2dm-4695,2,YCl,P-3m1,0,FALSE,top-down,51,54,mp-540884
2dm-4698,2,NdS3,P6/mmm,0,FALSE,top-down,604,511,mp-976249
2dm-4700,2,Si3Mo,P6/mmm,0,FALSE,top-down,1086,550,mp-978525
2dm-4702,2,WF5,Pmmm,1944,FALSE,top-down,380,70,mvc-15907
2dm-4712,2,SiH,P-3m1,2185,FALSE,top-down,27,38,mp-29803
2dm-4713,2,ZnCl2,P-4m2,4318,FALSE,top-down,7,77,mp-567279
2dm-4715,2,SnSe2,P-3m1,797,FALSE,top-down,0,91,mp-665
2dm-4716,2,ZnI2,P-3m1,2014,FALSE,top-down,138,78,mp-570964
2dm-4717,2,CaI2,P-3m1,3862,FALSE,top-down,0,82,mp-30031
2dm-4722,2,SbF5,Pmmm,836,FALSE,top-down,351,56,mvc-13958
2dm-4728,2,Cr3Te4,P-3m1,0,FALSE,top-down,67,51,mp-570122
2dm-4729,2,MoF5,Pmmm,826,FALSE,top-down,426,6,mvc-15892
2dm-4731,2,USe3,Pmmn,0,FALSE,top-down,0,58,mp-9429
2dm-4739,2,NiO2,P-3m1,1894,FALSE,top-down,89,,mvc-11545
2dm-4743,2,Al2O3,Pm,4202,FALSE,top-down,293,-310,mp-638765
2dm-4745,2,C3N4,P-6m2,1172,FALSE,top-down,86,82,mp-971684
2dm-4746,2,TaTe2,C2/m,0,FALSE,top-down,20,113,mp-601823
2dm-4752,2,VSe2,P-3m1,0,FALSE,top-down,0,86,mp-694
2dm-4755,2,As2Se3,Pc,1614,FALSE,top-down,17,132,mp-909
2dm-4762,2,V6O13,Pmma,0,FALSE,top-down,63,67,mp-715617
2dm-4763,2,BiF4,P4/mmm,724,FALSE,top-down,67,38,mvc-15980
2dm-4767,2,FeP4,P2_12_12,0,FALSE,top-down,442,,mp-568328
2dm-4774,2,SbF5,Pmma,1988,FALSE,top-down,261,33,mvc-6034
2dm-4778,2,Mo3O8,P2/m,909,FALSE,top-down,246,35,mvc-15991
2dm-4780,2,TcS2,P-1,1221,FALSE,top-down,0,73,mp-9481
2dm-4793,2,WF4,P2_1/c,3365,FALSE,top-down,0,48,mvc-14582
2dm-4794,2,CrS2,P-3m1,0,FALSE,top-down,0,53,mp-755263
2dm-4801,2,SnSe,Pmmn,1588,FALSE,top-down,80,103,mp-628773
2dm-4813,2,Nb2Te3,P2_1/m,0,FALSE,top-down,38,102,mp-570451
2dm-4814,2,V2S5,Pmmn,532,FALSE,top-down,257,84,mvc-11754
2dm-4821,2,As2S3,Pc,2130,FALSE,top-down,0,115,mp-641
2dm-4822,2,SbN9,P-3,2725,TRUE,top-down,255,,mp-510350
2dm-4827,2,V3O7,Pmn2_1,1324,FALSE,top-down,78,,mvc-13330