22,nelements,Formula,Spacegroup,Bandgap (meV),Is gap direct?,Discovery process,Decomposition energy (meV/atom),Exfoliation energy (meV/atom),Obtained from
2dm-5097,3,Si3Sb2O9,P-6,4665,TRUE,top-down,64,152,mp-769028
2dm-5100,3,Zn2Sn3O8,P2/m,2177,TRUE,top-down,156,150,mvc-14010
2dm-5103,3,VOF3,P2_1,2567,FALSE,top-down,51,27,mp-764243
2dm-5105,3,YbClO,P-3m1,0,FALSE,top-down,254,49,mp-546292
2dm-5109,3,Tl2SiS3,P-1,2883,FALSE,top-down,0,116,mp-8190
2dm-5110,3,Ti3V2O9,P2/c,1101,TRUE,top-down,224,45,mp-743987
2dm-5111,3,HfIN,P-3m1,2054,FALSE,top-down,0,,mp-567441
2dm-5112,3,SmClF,P4/nmm,0,FALSE,top-down,235,52,mp-608254
2dm-5114,3,Ag2PdO2,Pmmm,394,FALSE,top-down,123,169,mp-5495
2dm-5115,3,Np(OF)2,P2/m,0,FALSE,top-down,522,43,mp-634802
2dm-5117,3,CrCo3O8,P-3m1,0,FALSE,top-down,231,51,mp-765865
2dm-5118,3,ScHO2,P1,2169,FALSE,top-down,299,119,mp-625199
2dm-5124,3,Rb3Mn2Cl7,P4/mmm,716,FALSE,top-down,130,,mp-568008
2dm-5128,3,Mg(SnN)2,P-4m2,0,FALSE,top-down,265,48,mvc-13757
2dm-5129,3,VBrO,Pmmn,1463,FALSE,top-down,0,39,mp-32497
2dm-5130,3,LaIO,P4/nmm,3367,TRUE,top-down,0,48,mp-30993
2dm-5132,3,SnClF,P4/nmm,2568,FALSE,top-down,52,80,mp-989192
2dm-5135,3,CaBi2O5,Amm2,0,FALSE,top-down,283,,mvc-8235
2dm-5136,3,NbIO2,P2_1/m,923,FALSE,top-down,0,35,mp-557685
2dm-5137,3,CrCuSe2,P3m1,0,FALSE,top-down,566,,mp-7861
2dm-5139,3,ScHO2,Pmn2_1,4194,TRUE,top-down,54,87,mp-625150
2dm-5140,3,Na3(TiS2)10,Cm,0,FALSE,top-down,0,,mp-675056
2dm-5141,3,BiBO3,P2_1/c,3741,FALSE,top-down,50,106,mp-31250
2dm-5142,3,CuCO3,P2_1/c,27,FALSE,top-down,138,149,mp-760595
2dm-5143,3,LiCoO2,P3m1,235,FALSE,top-down,507,425,mp-765899
2dm-5145,3,ZnWO4,Pmna,2371,FALSE,top-down,363,77,mp-645124
2dm-5146,3,TlAsO4,P-42m,1470,FALSE,top-down,31,230,mp-754214
2dm-5147,3,Zn(InS2)2,P2/m,1867,TRUE,top-down,0,22,mp-674328
2dm-5149,3,Li2Mn3F8,P-3m1,3844,TRUE,top-down,97,43,mp-769630
2dm-5150,3,LuFeGe2,P4/nmm,0,FALSE,top-down,402,337,mp-973954
2dm-5152,3,Sb2S2O,P2_1/m,1826,FALSE,top-down,22,115,mp-861911
2dm-5154,3,Ba2Cr3O7,Pmm2,0,FALSE,top-down,442,16,mvc-1391
2dm-5156,3,CuTe2Br,P222_1,813,FALSE,top-down,0,127,mp-31036
2dm-5157,3,Mn(ReO4)2,P-3,3059,FALSE,top-down,0,63,mp-627380
2dm-5158,3,Ba(MoO2)4,P-31m,0,FALSE,top-down,553,54,mvc-1059
2dm-5159,3,TaFeTe3,P2_1/m,0,FALSE,top-down,24,82,mp-8848
2dm-5164,3,Mn3VO8,P-3m1,0,FALSE,top-down,113,75,mp-771844
2dm-5166,3,MnTlO3,P-31m,0,FALSE,top-down,170,104,mp-771272
2dm-5168,3,KC2N3,P2_1/m,4291,TRUE,top-down,147,74,mp-637256
2dm-5169,3,TbHO2,Pmmn,3400,TRUE,top-down,58,43,mp-504474
2dm-5170,3,NaHgCl3,P2_1/m,2832,TRUE,top-down,62,47,mp-608490
2dm-5173,3,CuAsO3,P-31m,0,FALSE,top-down,85,82,mp-776320
2dm-5174,3,W(BrO)2,Pmc2_1,854,FALSE,top-down,68,28,mp-774146
2dm-5176,3,Sn(BiTe2)2,P-3m1,793,FALSE,top-down,6,61,mp-38605
2dm-5177,3,Ni(WO4)2,P-1,1293,TRUE,top-down,222,40,mvc-700
2dm-5178,3,Ba2ZrS4,P4/mmm,0,FALSE,top-down,1503,,mp-3813
2dm-5179,3,Sc5NCl8,P2/m,0,FALSE,top-down,28,98,mp-31025
2dm-5180,3,NbVO5,P4/n,1922,TRUE,top-down,88,168,mp-769887
2dm-5184,3,CaLaI5,Pmc2_1,2196,TRUE,top-down,,,mp-770473
2dm-5185,3,Mn(CO3)2,P2_1/c,1404,FALSE,top-down,94,40,mp-762239
2dm-5186,3,Co3SbO8,P-3m1,0,FALSE,top-down,233,64,mp-765847
2dm-5188,3,U(SbO3)2,C2/m,2081,FALSE,top-down,41,116,mp-31256
2dm-5189,3,TlPt2Se3,P-3m1,1411,FALSE,top-down,0,117,mp-541487
2dm-5190,3,Ta2PdSe6,C2/m,79,FALSE,top-down,0,89,mp-8436
2dm-5192,3,SrBi5O9,Pm,0,FALSE,top-down,81,60,mp-753357
2dm-5193,3,Ba2Fe3O8,P4/mmm,0,FALSE,top-down,164,11,mvc-11008
2dm-5194,3,Li2MnF6,P-3m1,3110,FALSE,top-down,72,-14,mp-764717
2dm-5195,3,Be2Te7Cl6,P2/m,1397,FALSE,top-down,37,152,mp-30096
2dm-5197,3,Li2H2Pt,P4/mmm,0,FALSE,top-down,27,108,mp-644136
2dm-5199,3,U(OF)2,P2/m,2070,TRUE,top-down,141,,mp-634809
2dm-5200,3,Ag3SI,P1,605,TRUE,top-down,40,31,mp-676121
2dm-5201,3,Ba2HfS4,P4/mmm,0,FALSE,top-down,1488,,mp-9321
2dm-5202,3,Mo2H2O7,P2_1,2255,FALSE,top-down,127,35,mp-626813
2dm-5203,3,TmBiO3,P-3,3287,FALSE,top-down,210,293,mp-755216
2dm-5205,3,LiVF6,Cm,3360,TRUE,top-down,63,106,mp-766909
2dm-5207,3,HoCoSn2,Pmmn,0,FALSE,top-down,351,,mp-542403
2dm-5208,3,V3Zn2O8,P2/m,1423,TRUE,top-down,163,,mvc-14221
2dm-5210,3,Ta2NiSe5,Pmmn,0,FALSE,top-down,0,73,mp-541070
2dm-5211,3,Mn2CrO6,P-31m,864,FALSE,top-down,71,54,mp-767158
2dm-5214,3,Co(HO)2,C2,1839,FALSE,top-down,55,60,mp-625953
2dm-5218,3,AgClO2,P1,0,FALSE,top-down,268,147,mp-675942
2dm-5219,3,LiCu2F5,Pmm2,0,FALSE,top-down,169,224,mp-752721
2dm-5220,3,Rb(SbSe2)2,P-1,1572,FALSE,top-down,44,124,mp-9798
2dm-5223,3,YGaI,P-3m1,0,FALSE,top-down,0,39,mp-571210
2dm-5226,3,Nb(SeBr)2,C2/m,1232,FALSE,top-down,3,72,mp-541667
2dm-5227,3,V2ZnO6,C2/m,3040,FALSE,top-down,177,276,mp-551601
2dm-5228,3,MgSnO2,P-1,1620,FALSE,top-down,206,36,mvc-2446
2dm-5229,3,Sc7(CCl5)2,C2/m,0,FALSE,top-down,2,,mp-29315
2dm-5230,3,GePbS3,P2_1/c,2218,TRUE,top-down,12,103,mp-624190
2dm-5232,3,SrTeO3,P2_1/c,3900,FALSE,top-down,26,,mp-972117
2dm-5234,3,TeHO3,P2_1,2519,FALSE,top-down,32,,mp-625630
2dm-5236,3,VCuO4,Pmma,290,FALSE,top-down,71,111,mp-510733
2dm-5237,3,Pb(BrO3)2,P2/c,3122,TRUE,top-down,46,,mp-769016
2dm-5238,3,Ho2CF2,P-3m1,1113,FALSE,top-down,0,113,mp-9006
2dm-5239,3,CuTe2I,P222_1,858,FALSE,top-down,0,126,mp-31037
2dm-5240,3,AsPO4,Pmn2_1,4162,TRUE,top-down,0,189,mp-8140
2dm-5243,3,SnP2O7,P-1,2093,TRUE,top-down,166,103,mvc-5322
2dm-5244,3,Cu(BiO2)2,P42_12,64,FALSE,top-down,433,581,mp-505042
2dm-5249,3,NbTe4Ir,P2_1/m,28,FALSE,top-down,0,103,mp-505164
2dm-5250,3,Li(CoO2)2,P3m1,0,FALSE,top-down,388,,mp-771636
2dm-5251,3,Ag2CN2,P2_1/c,1568,TRUE,top-down,302,98,mp-574486
2dm-5252,3,PW4Cl11,Pmmn,651,TRUE,top-down,0,,mp-977371
2dm-5253,3,Mn3CuO8,P-3m1,6,FALSE,top-down,61,60,mp-771841
2dm-5255,3,Ca(SbO2)2,Pmc2_1,1682,FALSE,top-down,196,96,mvc-5840
2dm-5256,3,W(ClO)2,Pmc2_1,1697,FALSE,top-down,78,23,mp-32539
2dm-5260,3,SrLaCl5,P2_1/m,3702,FALSE,top-down,82,,mp-754999
2dm-5261,3,Li2UI6,P-31m,193,FALSE,top-down,0,83,mp-570813
2dm-5262,3,Eu(AlCl4)2,P2/c,1658,FALSE,top-down,0,54,mp-30022
2dm-5263,3,W(OF)2,Pmc2_1,1617,FALSE,top-down,0,10,mp-765254
2dm-5265,3,Li2SO4,Pmma,4435,TRUE,top-down,243,281,mp-558382
2dm-5266,3,NaV2O5,P2_1/m,673,FALSE,top-down,99,142,mp-765850
2dm-5267,3,Sn(PS3)2,P312,1496,FALSE,top-down,0,72,mp-36381
2dm-5269,3,CuSbS2,Pmc2_1,373,TRUE,top-down,55,144,mp-4468
2dm-5271,3,FeHO2,Pmn2_1,1755,FALSE,top-down,165,32,mp-625284
2dm-5272,3,MnP2O7,P-1,0,FALSE,top-down,126,78,mp-769839
2dm-5275,3,MnCo3O8,P-3m1,0,FALSE,top-down,239,291,mp-773602
2dm-5278,3,Te(WO4)2,P2/c,0,FALSE,top-down,458,452,mvc-690
2dm-5279,3,EuBrO,P4/nmm,0,FALSE,top-down,0,59,mp-504727
2dm-5280,3,Sc5CCl8,P2/m,0,FALSE,top-down,5,102,mp-31024
2dm-5282,3,Ag(AuS)2,Pc,0,FALSE,top-down,64,98,mp-35835
2dm-5283,3,Lu(HO)3,P2_1/c,4267,TRUE,top-down,74,68,mp-756273
2dm-5288,3,PdSeO3,C2/m,452,TRUE,top-down,22,67,mp-546684
2dm-5290,3,Y3I7O,P3m1,2576,TRUE,top-down,69,77,mp-753727
2dm-5291,3,TlTe3Pt2,P-3m1,982,FALSE,top-down,0,139,mp-9251
2dm-5292,3,TlBS2,P-3m1,1805,FALSE,top-down,0,114,mp-8946
2dm-5295,3,Ba(AlCl4)2,P2/c,5591,TRUE,top-down,0,49,mp-30023
2dm-5296,3,SbOF,P2_1/c,3423,FALSE,top-down,45,35,mp-753661
2dm-5297,3,LiFeF4,Pmc2_1,3213,FALSE,top-down,27,22,mp-777559
2dm-5298,3,GdOF,P4/nmm,3489,FALSE,top-down,397,441,mp-754149
2dm-5300,3,VHgO3,P-1,2418,FALSE,top-down,49,163,mp-541588
2dm-5304,3,NaHO,Pmn2_1,2833,FALSE,top-down,12,42,mp-626000
2dm-5306,3,MgV2S5,Pmmn,700,FALSE,top-down,336,190,mvc-11755
2dm-5308,3,Nb2Ge2O7,Pmc2_1,1494,FALSE,top-down,161,119,mp-754857
2dm-5309,3,ZnFe2S5,Pmmn,0,FALSE,top-down,408,,mvc-134
2dm-5310,3,YBiO3,P-3,3388,FALSE,top-down,195,285,mp-754152
2dm-5311,3,Co(CO3)2,P2_1/c,712,FALSE,top-down,116,38,mp-762909
2dm-5312,3,BaZnF4,Pmn2_1,4474,FALSE,top-down,99,,mp-3881
2dm-5314,3,ThTeO,P4/nmm,896,TRUE,top-down,0,,mp-3718
2dm-5315,3,Sn2P3O10,C2,12,TRUE,top-down,161,141,mp-673117
2dm-5316,3,ZnWO4,P2/c,3862,FALSE,top-down,43,47,mp-561591
2dm-5318,3,Mn(SbS2)2,Pmc2_1,0,FALSE,top-down,112,183,mp-5807
2dm-5319,3,CuTeO3,P2_1/c,1,TRUE,top-down,69,,mp-558696
2dm-5322,3,ZrBrO,P-3m1,0,FALSE,top-down,97,32,mp-754503
2dm-5323,3,ScClO,P4/nmm,4080,FALSE,top-down,71,43,mp-989195
2dm-5325,3,CeSiI,P-3m1,0,FALSE,top-down,0,43,mp-29535
2dm-5327,3,NaMgAs,P4/nmm,0,FALSE,top-down,376,,mp-5962
2dm-5330,3,Zn(SbO2)2,Pmma,1204,FALSE,top-down,301,-32,mvc-6055
2dm-5331,3,CuAgTe2,Pmm2,0,FALSE,top-down,70,93,mp-2977
2dm-5335,3,Yb(AlGe)2,P-3m1,176,FALSE,top-down,218,,mp-4041
2dm-5336,3,Mn3TeO8,C2/m,893,FALSE,top-down,25,,mp-774019
2dm-5338,3,Zn2Fe3O8,P2/m,0,FALSE,top-down,254,180,mvc-14216
2dm-5340,3,ZnCr2O5,Pmmn,0,FALSE,top-down,488,,mvc-15435
2dm-5341,3,ZrTlF5,P2_1/c,5059,TRUE,top-down,0,84,mp-30997
2dm-5345,3,Ta2CS2,P-3m1,22,FALSE,top-down,0,42,mp-7814
2dm-5346,3,Al(HO)3,P1,4263,TRUE,top-down,70,77,mp-626431
2dm-5347,3,CuMoO4,P1,430,FALSE,top-down,52,134,mp-619545
2dm-5348,3,Ta3SBr7,P3m1,855,TRUE,top-down,12,86,mp-31015
2dm-5349,3,AgIrF7,Pmc2_1,0,FALSE,top-down,0,,mp-662534
2dm-5350,3,VO2F,Pm,2493,FALSE,top-down,77,50,mp-764292
2dm-5352,3,MnTeO4,P2/m,85,TRUE,top-down,90,213,mp-773462
2dm-5353,3,MgV4O10,Pmm2,869,FALSE,top-down,187,,mvc-16061
2dm-5354,3,Gd2CCl2,P-3m1,493,FALSE,top-down,0,41,mp-29394
2dm-5358,3,Li2MnF6,P2/c,2714,FALSE,top-down,99,23,mp-763083
2dm-5361,3,NbTeI3,P2/c,580,FALSE,top-down,0,92,mp-540924
2dm-5362,3,VOF,P-3m1,2577,FALSE,top-down,73,71,mp-769647
2dm-5363,3,LiCuS2,P2/m,1188,FALSE,top-down,233,,mp-753722
2dm-5365,3,Mn(CuCl2)2,Pmm2,982,FALSE,top-down,46,138,mp-675163
2dm-5366,3,TiGeO3,P-3,1801,FALSE,top-down,36,28,mp-780260
2dm-5371,3,Cd(HO)2,P3m1,2079,FALSE,top-down,196,63,mp-625557
2dm-5373,3,V(TeO3)4,P1,1485,FALSE,top-down,145,136,mp-762679
2dm-5374,3,Te(WO4)2,P1,2131,FALSE,top-down,198,114,mvc-667
2dm-5375,3,ZrGeTe,P4/nmm,0,FALSE,top-down,0,71,mp-3208
2dm-5380,3,Sr(IO3)2,P2_1,3723,TRUE,top-down,,102,mp-768909
2dm-5381,3,BaH4O3,Pmc2_1,3720,TRUE,top-down,48,55,mp-626720
2dm-5382,3,NaAsO2,Pca2_1,4331,FALSE,top-down,4,37,mp-556145
2dm-5383,3,Ga2CuCl8,P2_1/c,575,FALSE,top-down,5,,mp-29300
2dm-5384,3,SbAsO4,P2_1/m,3522,FALSE,top-down,34,93,mp-7784
2dm-5387,3,ScIO,P2_1/m,2012,FALSE,top-down,0,38,mp-559760
2dm-5388,3,TaPbF7,Pm,4909,TRUE,top-down,33,,mp-557163
2dm-5389,3,Li(FeO2)3,P31m,584,FALSE,top-down,214,,mp-763849
2dm-5391,3,ZnBi4O9,P2/c,1400,FALSE,top-down,141,180,mvc-10485
2dm-5392,3,Ta(WO4)2,P1,2504,FALSE,top-down,192,51,mvc-740
2dm-5394,3,Nb2MoO8,P2/c,1543,FALSE,top-down,0,31,mvc-479
2dm-5395,3,CaSnS3,Pmm2,291,FALSE,top-down,695,313,mp-866894
2dm-5397,3,Hg2W2O7,P-1,2980,TRUE,top-down,60,73,mp-771222
2dm-5399,3,Ag3SbS3,Pc,1719,FALSE,top-down,34,106,mp-555269
2dm-5401,3,HIO3,Pca2_1,2904,FALSE,top-down,48,,mp-556216
2dm-5402,3,YIO,P-3m1,2591,TRUE,top-down,61,39,mp-754038
2dm-5404,3,Ga2Fe2S5,P-6m2,0,FALSE,top-down,155,26,mp-616672
2dm-5410,3,Bi2Te4Pb,P-3m1,1045,FALSE,top-down,6,58,mp-676250
2dm-5411,3,NaI3O8,P-4,3421,FALSE,top-down,72,180,mp-559065
2dm-5412,3,YVF5,Pmmm,896,FALSE,top-down,723,640,mvc-3524
2dm-5414,3,Hg3SeO6,P1,1062,FALSE,top-down,34,173,mp-754598
2dm-5415,3,AgGeO3,Pmma,0,FALSE,top-down,343,,mp-759939
2dm-5416,3,PbWO4,P2/c,3573,FALSE,top-down,56,,mp-641365
2dm-5417,3,CdSnO3,P-31m,1848,FALSE,top-down,145,,mp-754329
2dm-5419,3,Cd2SiO4,C222,2319,FALSE,top-down,417,595,mp-4530
2dm-5420,3,Li(CoO2)3,P1,511,FALSE,top-down,248,240,mp-997539
2dm-5422,3,SrLaCl5,P2_1/m,3874,FALSE,top-down,70,79,mp-768963
2dm-5425,3,MgCr2F12,P-1,1303,FALSE,top-down,12,21,mvc-12009
2dm-5427,3,Ca(BiO2)2,Pmc2_1,1058,FALSE,top-down,220,,mvc-5722
2dm-5428,3,Re2S2O13,Pba2,2387,FALSE,top-down,0,35,mp-974650
2dm-5429,3,Mg(SbO2)4,Pm,2125,FALSE,top-down,178,112,mvc-2858
2dm-5430,3,Mn3OF6,P-1,666,FALSE,top-down,94,57,mp-763854
2dm-5432,3,Nb9IrSe20,P-1,0,FALSE,top-down,45,,mp-675290
2dm-5433,3,MgWF4,Pccm,2359,FALSE,top-down,522,,mvc-3351
2dm-5434,3,Bi2B2O7,P-1,0,FALSE,top-down,152,186,mp-768952
2dm-5435,3,Mg(BiO2)4,P1,704,FALSE,top-down,205,108,mvc-2854
2dm-5437,3,Dy2Te5O13,P-1,3059,FALSE,top-down,14,,mp-555940
2dm-5438,3,Li2Cu3F8,P-1,323,FALSE,top-down,84,,mp-753387
2dm-5440,3,ReHgO4,P2_1/c,3010,FALSE,top-down,0,117,mp-616597
2dm-5443,3,MgV4O9,P4/n,2079,TRUE,top-down,153,,mvc-10447
2dm-5444,3,BiP2O7,P-1,87,FALSE,top-down,117,61,mvc-5345
2dm-5445,3,ZnCo4O9,P2/c,37,TRUE,top-down,329,128,mvc-10548
2dm-5446,3,AlBiBr6,P-1,2611,TRUE,top-down,19,69,mp-31268
2dm-5448,3,CaPbI4,P2_1/m,3014,FALSE,top-down,6,79,mp-756451
2dm-5449,3,V4ZnO9,P4/n,1829,TRUE,top-down,137,,mvc-10446
2dm-5450,3,As2Pb2O5,P2_1/c,3011,FALSE,top-down,0,85,mp-505465
2dm-5451,3,Li2Cu2F7,P-1,150,FALSE,top-down,68,,mp-753090
2dm-5453,3,V2P4S13,P-1,129,FALSE,top-down,12,,mp-620190
2dm-5455,3,NdPb6F15,Cm,4090,FALSE,top-down,42,,mp-676572
2dm-5456,3,Zn(SnO2)2,P2/c,2950,TRUE,top-down,147,41,mvc-6860
2dm-5457,3,MgV2O5,Pmmn,2881,FALSE,top-down,243,,mvc-11960
2dm-5458,3,Hg(TeO3)2,P-1,2138,FALSE,top-down,116,,mp-779690
2dm-5459,3,LiVF4,P-1,2388,FALSE,top-down,117,73,mp-777556
2dm-5460,3,La(HO)3,P2_1/c,4374,FALSE,top-down,89,,mp-768658
2dm-5461,3,ReSeCl,P2_12_12,1609,FALSE,top-down,0,74,mp-676712
2dm-5463,3,Bi6W4O21,P1,0,FALSE,top-down,189,79,mp-691131
2dm-5464,3,V3(OF)4,Pm,669,FALSE,top-down,109,-8,mp-764325
2dm-5465,3,SnCCl3,P3m1,30,FALSE,top-down,1299,164,mp-1068985
2dm-5467,3,CuHgO2,P2/m,0,FALSE,top-down,95,191,mp-996973
2dm-5468,3,BaClO3,P4/nmm,0,FALSE,top-down,852,474,mp-1080782
2dm-5470,3,Ta3SeI7,P3m1,688,FALSE,top-down,15,99,mp-29116
2dm-5471,3,Ba(NiO2)4,P-31m,0,FALSE,top-down,423,32,mvc-1058
2dm-5472,3,CrPO5,P4/n,2060,TRUE,top-down,27,61,mp-770751
2dm-5473,3,Co(ClO4)2,P-3,3035,FALSE,top-down,0,19,mp-31621
2dm-5474,3,LaMgI5,Pmma,1999,FALSE,top-down,17,71,mp-756578
2dm-5475,3,Mg2SiO4,P4/mmm,0,FALSE,top-down,1892,1603,mp-7983
2dm-5477,3,ZnFe2O5,Pmmn,0,FALSE,top-down,440,254,mvc-8375
2dm-5478,3,PPdS,Pc,0,FALSE,top-down,228,411,mp-7280
2dm-5481,3,Ba(SnO2)4,P-31m,0,FALSE,top-down,348,56,mvc-600
2dm-5482,3,TiPbO3,P4mm,2481,FALSE,top-down,292,417,mp-20459
2dm-5484,3,Mn(NbS2)2,P-3m1,0,FALSE,top-down,427,43,mp-1025312
2dm-5487,3,FeAgS2,P3m1,0,FALSE,top-down,315,194,mp-1096969
2dm-5488,3,Na2SnO6,P-3,505,FALSE,top-down,572,,mp-1086677
2dm-5491,3,VSO5,P4/n,2703,FALSE,top-down,51,105,mp-19277
2dm-5492,3,MnSbO4,P2/m,1322,FALSE,top-down,81,79,mp-771676
2dm-5493,3,Re(AgCl3)2,P-3,907,TRUE,top-down,0,86,mp-23472
2dm-5494,3,Na2UI6,P-3,271,FALSE,top-down,0,,mp-23546
2dm-5496,3,Ta3TeI7,P3m1,659,FALSE,top-down,13,93,mp-29117
2dm-5498,3,V(CO3)2,P-3,1462,FALSE,top-down,76,35,mp-763352
2dm-5501,3,Li2WS4,P-42m,2288,FALSE,top-down,38,82,mp-753195
2dm-5504,3,Al2FeS4,P-3m1,0,FALSE,top-down,118,41,mp-1078015
2dm-5506,3,TiTl2F6,P-3m1,3851,FALSE,top-down,0,106,mp-10402
2dm-5508,3,Bi2CO5,Pmm2,0,FALSE,top-down,292,243,mp-30200
2dm-5510,3,Ba(SbO2)4,P-31m,0,FALSE,top-down,353,109,mvc-615
2dm-5511,3,CuSiO3,Pmma,107,FALSE,top-down,107,84,mp-16053
2dm-5512,3,Li2CuP,P-6m2,0,FALSE,top-down,177,235,mp-675589
2dm-5514,3,InSiTe3,P-31m,858,FALSE,top-down,0,89,mp-567931
2dm-5515,3,Zn2Ni3O8,P2/m,945,FALSE,top-down,220,214,mvc-3317
2dm-5518,3,CaInBr3,Pmma,2815,TRUE,top-down,28,130,mp-28534
2dm-5519,3,InPF3,P3,1427,FALSE,top-down,675,111,mp-675295
2dm-5520,3,ScClO,P4/nmm,2714,FALSE,top-down,1041,418,mp-990436
2dm-5524,3,NaSnN,P3m1,386,FALSE,top-down,310,,mp-12433
2dm-5527,3,CaGaN,P4/nmm,0,FALSE,top-down,277,333,mp-7263
2dm-5528,3,AgBiO2,P2_1/m,1991,FALSE,top-down,41,107,mp-996969
2dm-5530,3,U(HO2)2,Pmna,1965,TRUE,top-down,247,107,mp-626876
2dm-5532,3,SrMnSn,P4/nmm,0,FALSE,top-down,372,203,mp-20759
2dm-5534,3,USeO5,P2_1/m,1994,FALSE,top-down,47,95,mp-27723
2dm-5537,3,LiFeP,P4/nmm,0,FALSE,top-down,71,163,mp-20049
2dm-5538,3,U(HO2)2,P2_1/c,2457,FALSE,top-down,103,109,mp-510128
2dm-5540,3,Cu2IO3,P2_1/m,0,FALSE,top-down,126,84,mp-1095489
2dm-5542,3,K2P2Pd,Pmma,401,FALSE,top-down,5,,mp-7505
2dm-5543,3,NaMgSb,P4/nmm,0,FALSE,top-down,371,519,mp-7090
2dm-5544,3,NaSnO,P4/nmm,0,FALSE,top-down,324,255,mp-777546
2dm-5546,3,CdPSe3,P-3,1533,FALSE,top-down,0,76,mp-1079559
2dm-5548,3,SnClF,P2_1/m,3870,FALSE,top-down,2,,mp-27373
2dm-5549,3,Nb2CoS4,P-3m1,0,FALSE,top-down,413,45,mp-1025350
2dm-5551,3,VPbO3,P4mm,0,FALSE,top-down,393,464,mp-25119
2dm-5553,3,Rb3Nb2Br9,P-6m2,425,FALSE,top-down,136,233,mp-29413
2dm-5554,3,K2As2Pd,Pmma,423,TRUE,top-down,0,156,mp-8147
2dm-5556,3,Ba(BiO2)4,P-31m,0,FALSE,top-down,294,46,mvc-619
2dm-5557,3,LiMg6C,Pmm2,0,FALSE,top-down,513,252,mp-1021342
2dm-5559,3,CuAuO2,P2/m,0,FALSE,top-down,7,182,mp-996978
2dm-5561,3,CrAgS2,P3m1,0,FALSE,top-down,107,,mp-560676
2dm-5562,3,TaNi2Te3,P2_1/m,0,FALSE,top-down,0,79,mp-9391
2dm-5563,3,NaTlO,Pm,96,FALSE,top-down,,25,mp-867680
2dm-5564,3,La(BiO2)2,P-3m1,0,FALSE,top-down,168,110,mp-753380
2dm-5565,3,TlPt2S3,P-3m1,1662,FALSE,top-down,0,105,mp-9272
2dm-5566,3,Ta(NiTe)2,Pmma,0,FALSE,top-down,0,54,mp-28667
2dm-5568,3,AlCrF5,Pmmm,0,FALSE,top-down,621,723,mvc-15887
2dm-5570,3,LiClO2,P-42_1m,3416,TRUE,top-down,123,63,mp-31367
2dm-5571,3,Pb3SeO5,Pmc2_1,3030,FALSE,top-down,35,130,mp-510293
2dm-5572,3,Li4TiS4,P-42m,2520,FALSE,top-down,192,260,mp-861182
2dm-5574,3,BaTiO3,Pmm2,789,FALSE,top-down,755,121,mp-644497
2dm-5576,3,ErBiO3,P-3,3328,FALSE,top-down,206,291,mp-754636
2dm-5577,3,Tl3(MoO4)2,P3m1,0,FALSE,top-down,139,80,mp-25775
2dm-5581,3,YbIO,P2_1/c,0,FALSE,top-down,225,46,mp-753368
2dm-5583,3,VMoO5,P4/n,1811,TRUE,top-down,52,138,mp-25057
2dm-5584,3,MgCuGe,P4/nmm,0,FALSE,top-down,1094,861,mp-1018798
2dm-5585,3,Mg2Co3O8,P2/m,0,FALSE,top-down,367,,mvc-3029
2dm-5588,3,Li3BiS3,P-3,2700,FALSE,top-down,115,168,mp-753720
2dm-5589,3,K2GeTe4,P2_1/c,1057,TRUE,top-down,13,,mp-28126
2dm-5590,3,LiMnO2,Pmmn,0,FALSE,top-down,387,,mp-18767
2dm-5592,3,GdGa2Co,P4/mmm,0,FALSE,top-down,316,,mp-648086
2dm-5594,3,NaNO2,P2_1/m,0,FALSE,top-down,1657,1677,mp-675369
2dm-5596,3,LuCoGe2,P4/nmm,0,FALSE,top-down,338,342,mp-973938
2dm-5599,3,Cu3OF5,P-1,0,FALSE,top-down,60,72,mp-755349
2dm-5600,3,K2GeSe4,P2_1/c,1901,FALSE,top-down,12,,mp-29022
2dm-5602,3,Al2Si4O11,C2/m,4297,TRUE,top-down,31,21,mp-707135
2dm-5603,3,CaV2O5,Pmmn,2135,FALSE,top-down,191,,mvc-13684
2dm-5604,3,GeBi2O5,Pmc2_1,2126,FALSE,top-down,147,,mp-23553
2dm-5607,3,Zn(SnO2)4,Cm,1380,FALSE,top-down,181,,mvc-2898
2dm-5608,3,ZnCr2O5,Pmmn,164,TRUE,top-down,430,,mvc-8396
2dm-5609,3,Ti3H2O7,P2_1/m,2374,FALSE,top-down,264,,mp-626569
2dm-5610,3,AlTeI7,Pc,1938,FALSE,top-down,0,111,mp-29407
2dm-5611,3,LiAgF4,Pnc2,1771,FALSE,top-down,76,,mp-752460
2dm-5613,3,Li2Cr4O13,C2,1740,FALSE,top-down,43,34,mp-773197
2dm-5614,3,Hg2AsCl2,P2/m,1377,FALSE,top-down,130,263,mp-28224
2dm-5615,3,BaLaI5,P2_1/m,2447,FALSE,top-down,30,84,mp-755350
2dm-5617,3,Mn2ZnS5,Pmmn,0,FALSE,top-down,281,,mvc-12972
2dm-5619,3,Ho2Te5O13,P-1,3102,FALSE,top-down,14,,mp-5572
2dm-5625,3,PdSeO3,P2_1/m,1138,FALSE,top-down,11,76,mp-545482
2dm-5626,3,Nd3O2F5,Pm,3224,FALSE,top-down,199,1,mp-686701
2dm-5627,3,LiFe2F5,Pmma,2823,TRUE,top-down,206,222,mp-778704
2dm-5629,3,HgCN2,P2_1/m,2309,FALSE,top-down,328,,mp-570848
2dm-5631,3,Ta3SiTe6,Pmc2_1,0,FALSE,top-down,0,,mp-505206
2dm-5632,3,AlInI4,P2_1/m,2851,TRUE,top-down,0,91,mp-571260
2dm-5635,3,Ca3(CoO3)2,P1,1233,FALSE,top-down,301,202,mvc-12826
2dm-5636,3,Mn2P4O13,C2,844,FALSE,top-down,105,114,mp-770535
2dm-5638,3,CaSnS3,P2_1/c,1764,TRUE,top-down,85,70,mp-866941
2dm-5640,3,H3I3N2,P2_1/m,835,FALSE,top-down,377,123,mp-27855
2dm-5641,3,Li3V5O14,P31m,2680,FALSE,top-down,138,85,mp-770775
2dm-5645,3,AlPI8,Pc,1473,TRUE,top-down,0,,mp-568423
2dm-5646,3,VPO5,P4/n,2510,FALSE,top-down,9,88,mp-763482
2dm-5647,3,HgSO4,Pmn2_1,2208,FALSE,top-down,0,127,mp-3228
2dm-5650,3,Mg(SbO2)2,P2_1/m,2772,TRUE,top-down,127,84,mvc-7317
2dm-5651,3,V3O2F5,Pmc2_1,1217,FALSE,top-down,114,,mp-765012
2dm-5653,3,HAuO2,P-1,525,FALSE,top-down,161,202,mp-996998
2dm-5655,3,LiVF5,C2/m,2102,TRUE,top-down,65,9,mp-762785
2dm-5657,3,BiSbO5,P2_1/c,737,TRUE,top-down,246,69,mvc-8775
2dm-5659,3,V2Re2O11,P1,1114,TRUE,top-down,178,,mp-704848
2dm-5660,3,V3H5O8,Cm,1660,FALSE,top-down,127,,mp-626120
2dm-5661,3,KTe2F9,P-1,4359,FALSE,top-down,36,59,mp-29144
2dm-5662,3,Cu(IO3)2,P2_1,505,FALSE,top-down,92,165,mp-27234
2dm-5664,3,LiFeF4,P2/c,3994,FALSE,top-down,54,,mp-776827
2dm-5666,3,Zn(Sn2O3)2,Pmma,0,TRUE,top-down,377,,mvc-366
2dm-5667,3,KNbCl6,Pmn2_1,2185,FALSE,top-down,14,71,mp-675801