material_id,nelements,Formula,Spacegroup,Bandgap (meV),Is gap direct?,Discovery process,Decomposition energy (meV/atom),Exfoliation energy (meV/atom),Obtained from
2dm-2989,2,Sr2Bi,Pmmn,0,FALSE,bottom-up,426,,2dm-4910
2dm-299,2,BN5,Pmc2_1,0,FALSE,bottom-up,1491,,2dm-3922
2dm-3,2,TlS,P-1,981,FALSE,bottom-up,177,95,2dm-5155
2dm-30,2,Sb2C,Pmc2_1,162,FALSE,bottom-up,783,80,2dm-4912
2dm-300,2,Tb5I8,P2/m,0,FALSE,bottom-up,19,98,2dm-4320
2dm-301,2,NiBr2,P2_1/c,712,FALSE,bottom-up,72,110,2dm-3562
2dm-302,2,NiSe,P3m1,0,FALSE,bottom-up,,486,2dm-3053
2dm-303,2,IrI3,C2/m,1562,FALSE,bottom-up,5,90,2dm-3618
2dm-304,2,La2Si,P-3m1,0,FALSE,bottom-up,440,,2dm-3189
2dm-305,2,ReS,P4/nmm,0,FALSE,bottom-up,532,107,2dm-5286
2dm-306,2,Tc2Cl5,P2/c,0,FALSE,bottom-up,347,247,2dm-4185
2dm-307,2,PPb,P-1,592,TRUE,bottom-up,389,387,2dm-4588
2dm-308,2,As2O5,Pmn2_1,1565,TRUE,bottom-up,176,,2dm-3519
2dm-309,2,SiSe2,P-3m1,411,FALSE,bottom-up,127,77,2dm-3203
2dm-31,2,AlF3,C2/m,8420,FALSE,bottom-up,99,,2dm-4040
2dm-310,2,SnBr2,P-3m1,2253,FALSE,bottom-up,3,81,2dm-3464
2dm-311,2,OsSe,P4/nmm,0,FALSE,bottom-up,374,104,2dm-5535
2dm-312,2,AgF,P-3m1,929,TRUE,bottom-up,99,,2dm-4972
2dm-313,2,Ta2Te3,P2_1/m,0,FALSE,bottom-up,72,78,2dm-3670
2dm-314,2,Si2O3,P2_1/c,1422,FALSE,bottom-up,532,31,2dm-3613
2dm-315,2,HfAg,P4/nmm,0,FALSE,bottom-up,242,301,2dm-5074
2dm-316,2,GeN2,Pmc2_1,0,FALSE,bottom-up,789,90,2dm-4912
2dm-317,2,YbCl2,P-3m1,6129,FALSE,bottom-up,13,70,2dm-4965
2dm-318,2,B2Te,P-3m1,0,FALSE,bottom-up,2154,,2dm-4097
2dm-319,2,SeF,P-1,1928,FALSE,bottom-up,194,166,2dm-3502
2dm-32,2,MoBr3,C2/m,1067,TRUE,bottom-up,57,,2dm-3836
2dm-320,2,ReTe2,P-1,947,FALSE,bottom-up,60,,2dm-4780
2dm-321,2,NdF3,Pmmn,6981,TRUE,bottom-up,114,,2dm-3780
2dm-322,2,In2Ru,P4/mmm,0,FALSE,bottom-up,463,290,2dm-4344
2dm-323,2,Ga2O3,Pc,2045,FALSE,bottom-up,144,171,2dm-5005
2dm-324,2,Ge3Cl8,P1,2136,FALSE,bottom-up,56,,2dm-3403
2dm-325,2,SrF2,P-3m1,6655,FALSE,bottom-up,181,59,2dm-4717
2dm-326,2,InBr,Pbcm,2535,FALSE,bottom-up,34,92,2dm-4627
2dm-327,2,SbC,P-1,489,FALSE,bottom-up,828,57,2dm-4588
2dm-329,2,BBr,Aem2,2596,FALSE,bottom-up,1774,76,
2dm-33,2,B2O3,P-62m,5186,FALSE,bottom-up,20,71,2dm-3374
2dm-330,2,SnAs,C2/m,1346,FALSE,bottom-up,39,101,2dm-3474
2dm-331,2,HfBr2,P-3m1,0,FALSE,bottom-up,74,74,2dm-3607
2dm-332,2,SiSb2,Pmc2_1,965,FALSE,bottom-up,127,97,2dm-3619
2dm-333,2,PbN,P-1,0,FALSE,bottom-up,721,,2dm-4588
2dm-334,2,Sb9F2,P2_1/m,0,FALSE,bottom-up,116,95,2dm-3684
2dm-335,2,BI3,C2/m,1983,FALSE,bottom-up,83,96,2dm-4040
2dm-336,2,SbO2,Pmmn,1487,FALSE,bottom-up,167,,2dm-3642
2dm-337,2,HfCl2,P2_1/m,862,FALSE,bottom-up,45,64,2dm-4652
2dm-338,2,IrSe2,P-3m1,0,FALSE,bottom-up,158,197,2dm-3401
2dm-339,2,Ga2Se5,C2/m,1655,FALSE,bottom-up,17,86,2dm-4985
2dm-34,2,GaSb3,P-3m1,380,TRUE,bottom-up,297,320,
2dm-340,2,SbCl4,Pm,251,FALSE,bottom-up,,-136,2dm-4763
2dm-341,2,InS,P-6m2,1750,FALSE,bottom-up,0,63,2dm-3099
2dm-342,2,BCl3,Pmc2_1,4532,FALSE,bottom-up,24,69,2dm-3521
2dm-343,2,YBr2,P4/mmm,0,FALSE,bottom-up,117,84,2dm-3640
2dm-344,2,SiO,P4/nmm,1944,FALSE,bottom-up,1068,188,2dm-3561
2dm-345,2,SiS2,P-3m1,1335,FALSE,bottom-up,133,69,2dm-4715
2dm-346,2,GaCl,Pbcm,3128,FALSE,bottom-up,94,78,2dm-4627
2dm-347,2,TlTe,C2/m,845,FALSE,bottom-up,204,325,2dm-3756
2dm-348,2,Y2Cl5,P2_1/m,456,FALSE,bottom-up,32,82,2dm-5545
2dm-349,2,SrBr2,P-3m1,5082,FALSE,bottom-up,23,76,2dm-4717
2dm-35,2,AlI,P4mm,1577,FALSE,bottom-up,,498,2dm-3775
2dm-350,2,HfF3,P-1,852,FALSE,bottom-up,308,,2dm-3805
2dm-351,2,SeBr,C2/m,1364,FALSE,bottom-up,11,68,2dm-4682
2dm-352,2,ZrF3,P-1,555,TRUE,bottom-up,196,53,2dm-3805
2dm-353,2,TiCl2,P2_1/m,321,FALSE,bottom-up,0,63,
2dm-354,2,YBr3,Pmmn,2814,FALSE,bottom-up,58,84,2dm-3582
2dm-355,2,TlP,P4/nmm,0,FALSE,bottom-up,644,287,2dm-3743
2dm-356,2,Al2Te,P-3,559,TRUE,bottom-up,599,,2dm-4097
2dm-358,2,GeBr4,P4/mmm,0,FALSE,bottom-up,409,143,2dm-4359
2dm-359,2,HgF2,C2/m,1986,TRUE,bottom-up,58,,2dm-5027
2dm-36,2,SiI4,P4/mmm,0,FALSE,bottom-up,469,196,2dm-4359
2dm-360,2,GaI3,C2/m,1281,FALSE,bottom-up,129,87,2dm-4040
2dm-361,2,EuP2,Pm,0,FALSE,bottom-up,423,,
2dm-362,2,AuF,P-3m1,0,FALSE,bottom-up,286,,2dm-4972
2dm-363,2,In2Se5,C2/m,1324,FALSE,bottom-up,46,95,2dm-4985
2dm-364,2,NbS2,C2/m,0,FALSE,bottom-up,40,97,2dm-3106
2dm-365,2,Br3N,P-31m,1180,FALSE,bottom-up,995,,2dm-3628
2dm-366,2,WI3,P-31m,754,TRUE,bottom-up,87,92,2dm-3768
2dm-367,2,PrS3,P4/nmm,0,FALSE,bottom-up,68,45,2dm-3067
2dm-368,2,S3N2,P-3m1,0,FALSE,bottom-up,1082,44,2dm-2995
2dm-369,2,PCl4,P1,2140,FALSE,bottom-up,,,2dm-4763
2dm-37,2,SiCl4,P4/mmm,1302,FALSE,bottom-up,524,94,2dm-4359
2dm-370,2,HfS5,Pmmn,187,TRUE,bottom-up,0,73,2dm-3847
2dm-371,2,Si3Cl8,P1,1131,FALSE,bottom-up,347,35,2dm-3403
2dm-372,2,WCl2,R-3m,0,FALSE,bottom-up,552,-159,2dm-4342
2dm-373,2,SiS,Pmmn,1366,FALSE,bottom-up,515,76,2dm-4801
2dm-374,2,BTe,P-6m2,1475,FALSE,bottom-up,203,55,2dm-3530
2dm-375,2,BaCl2,P-3m1,5719,FALSE,bottom-up,113,82,2dm-4717
2dm-376,2,CBr4,P4/mmm,0,FALSE,bottom-up,1130,301,2dm-4359
2dm-377,2,SnN3,P-3m1,1450,FALSE,bottom-up,439,-6,2dm-5503
2dm-378,2,NbI2,P-3m1,0,FALSE,bottom-up,319,,2dm-5075
2dm-379,2,PBr3,P-31m,2196,FALSE,bottom-up,157,176,2dm-3628
2dm-38,2,Nd2Se5,P4/nmm,0,FALSE,bottom-up,21,28,2dm-3185
2dm-380,2,TiF2,P-6m2,1352,FALSE,bottom-up,126,49,2dm-3706
2dm-381,2,B4S3,Pmn2_1,204,FALSE,bottom-up,571,156,2dm-3571
2dm-382,2,YCl2,P4/mmm,0,FALSE,bottom-up,149,78,2dm-3640
2dm-383,2,BeGe2,P-3m1,0,FALSE,bottom-up,477,,2dm-5517
2dm-384,2,PdSe2,P-3m1,554,FALSE,bottom-up,41,150,2dm-4255
2dm-385,2,P2O3,Pc,3729,TRUE,bottom-up,92,41,2dm-3779
2dm-386,2,US5,P2_1,7,FALSE,bottom-up,0,99,2dm-5500
2dm-387,2,Te5As2,P2_1/c,457,FALSE,bottom-up,119,,
2dm-388,2,Al2Se5,P1,1593,FALSE,bottom-up,7,83,2dm-4306
2dm-389,2,SrAu,P6/mmm,0,FALSE,bottom-up,326,,2dm-5120
2dm-39,2,AlF,Pmmn,919,FALSE,bottom-up,825,117,2dm-3762
2dm-390,2,MnBr3,P-3m1,492,TRUE,bottom-up,0,110,2dm-3697
2dm-392,2,As4Cl,P2/m,0,FALSE,bottom-up,54,75,2dm-5639
2dm-393,2,Sb2S3,P2_1/m,1001,FALSE,bottom-up,44,97,2dm-4253
2dm-394,2,Bi2Se5,P2_1/c,404,TRUE,bottom-up,155,89,
2dm-395,2,As2C,Pmc2_1,1137,FALSE,bottom-up,568,62,2dm-4912
2dm-396,2,MoCl4,P-1,0,FALSE,bottom-up,79,,2dm-4793
2dm-397,2,PF3,Fmmm,851,TRUE,bottom-up,426,,2dm-3868
2dm-398,2,PtCl2,P2_1/c,1821,FALSE,bottom-up,31,108,2dm-5760
2dm-399,2,WI2,P4/mbm,1725,TRUE,bottom-up,0,90,2dm-4169
2dm-4,2,MoCl2,R-3m,0,FALSE,bottom-up,485,-55,2dm-4342
2dm-40,2,YSi3,P6/mmm,0,FALSE,bottom-up,989,909,2dm-5552
2dm-400,2,ZrF3,C2/m,549,TRUE,bottom-up,194,,2dm-3906
2dm-401,2,MoS3,P2_1/c,5,TRUE,bottom-up,65,82,2dm-4138
2dm-402,2,S3N2,Pmn2_1,2238,FALSE,bottom-up,172,53,2dm-4755
2dm-403,2,Tb5Cl8,P2/m,0,FALSE,bottom-up,82,108,2dm-4320
2dm-404,2,SiO,Pbcm,1661,TRUE,bottom-up,902,67,2dm-3669
2dm-405,2,In2Fe,P4/mmm,0,FALSE,bottom-up,459,196,2dm-3244
2dm-406,2,AsF3,C2/m,3087,TRUE,bottom-up,289,43,2dm-3868
2dm-407,2,TePb,Pmmn,1600,FALSE,bottom-up,153,149,2dm-4801
2dm-408,2,ZnF2,P-4m2,4571,FALSE,bottom-up,143,102,2dm-5027
2dm-409,2,In2Os,P4/mmm,0,FALSE,bottom-up,664,310,2dm-3244
2dm-41,2,MoBr2,C2/m,617,FALSE,bottom-up,733,79,2dm-3623
2dm-410,2,P2Se3,P2_1/m,284,FALSE,bottom-up,91,94,2dm-4253
2dm-411,2,VCl5,P1,1063,FALSE,bottom-up,,66,
2dm-412,2,BiC,P-1,0,FALSE,bottom-up,1038,69,2dm-3615
2dm-413,2,As9Cl2,P2_1/m,0,FALSE,bottom-up,49,69,2dm-3684
2dm-414,2,GaI,P4mm,2028,TRUE,bottom-up,,619,2dm-3775
2dm-415,2,C3Cl8,P1,385,TRUE,bottom-up,395,,2dm-3403
2dm-416,2,P2Se3,P-3m1,424,FALSE,bottom-up,147,59,2dm-2995
2dm-417,2,GaSb,P4/nmm,0,FALSE,bottom-up,223,145,2dm-3743
2dm-418,2,NO2,Pmn2_1,1233,FALSE,bottom-up,173,-11,2dm-3642
2dm-419,2,YF3,P-31m,7620,TRUE,bottom-up,157,52,2dm-5828
2dm-42,2,Ba2As,P-3m1,0,FALSE,bottom-up,197,216,2dm-3279
2dm-420,2,Ga2Os,P4/mmm,0,FALSE,bottom-up,665,597,2dm-3244
2dm-421,2,NiSe2,P-3m1,96,FALSE,bottom-up,8,136,2dm-4136
2dm-422,2,Sb2Te3,Pc,810,FALSE,bottom-up,1123,,2dm-4755
2dm-423,2,VCl5,P-1,981,FALSE,bottom-up,10,66,
2dm-424,2,ReCl2,P-3m1,0,FALSE,bottom-up,891,78,2dm-3606
2dm-425,2,TaS2,C2/m,0,FALSE,bottom-up,23,93,2dm-3033
2dm-426,2,GeSb,P-1,1208,TRUE,bottom-up,72,107,2dm-3615
2dm-427,2,Bi2Se3,Pc,867,FALSE,bottom-up,130,,2dm-4821
2dm-428,2,Y7Br10,P-1,0,FALSE,bottom-up,18,77,2dm-3516
2dm-429,2,Y2Ge,P-3m1,0,FALSE,bottom-up,700,407,2dm-5825
2dm-43,2,BeF2,P-3m1,9449,FALSE,bottom-up,340,39,2dm-4717
2dm-430,2,InSe,P-1,1496,FALSE,bottom-up,25,83,2dm-5155
2dm-431,2,AgBr,P-3m1,1866,TRUE,bottom-up,37,71,2dm-4972
2dm-432,2,Br4N,P1,0,FALSE,bottom-up,,322,2dm-4763
2dm-433,2,LaCl3,C2/m,4069,FALSE,bottom-up,60,75,2dm-4486
2dm-434,2,GeSb,C2/m,1357,FALSE,bottom-up,75,93,2dm-3474
2dm-435,2,TmBe5,Cm,0,FALSE,bottom-up,587,307,2dm-4330
2dm-436,2,PO2,Pmc2_1,2764,FALSE,bottom-up,,9,2dm-4327
2dm-437,2,BeBr2,P-4m2,4191,FALSE,bottom-up,63,73,2dm-4009
2dm-438,2,SF,P-1,3377,FALSE,bottom-up,0,,2dm-4682
2dm-439,2,AsCl3,Pmn2_1,3706,FALSE,bottom-up,22,63,2dm-3709
2dm-440,2,Br3N,P2_1/c,1215,TRUE,bottom-up,590,,2dm-5217
2dm-441,2,TbF3,Pmmn,7271,TRUE,bottom-up,104,185,2dm-3753
2dm-442,2,VSe3,P2_1/m,0,FALSE,bottom-up,56,59,2dm-5258
2dm-443,2,Sb2O3,Pm,2162,FALSE,bottom-up,185,105,2dm-3968
2dm-444,2,Nb2S3,C2/m,60,TRUE,bottom-up,106,78,2dm-4351
2dm-445,2,TlS,P-1,1142,FALSE,bottom-up,180,270,2dm-3756
2dm-446,2,PdS,P3m1,0,FALSE,bottom-up,,476,2dm-3053
2dm-447,2,SmS3,P4/nmm,0,FALSE,bottom-up,11,44,2dm-4364
2dm-448,2,NCl3,P2_1/c,1991,FALSE,bottom-up,32,76,2dm-4881
2dm-449,2,RhPb3,P4/mbm,0,FALSE,bottom-up,92,,
2dm-45,2,TiI2,P-6m2,679,TRUE,bottom-up,44,81,2dm-3706
2dm-450,2,As2Pt,P4/mmm,0,FALSE,bottom-up,574,126,2dm-5531
2dm-451,2,SiBi2,Pmc2_1,786,FALSE,bottom-up,243,106,2dm-3619
2dm-452,2,AlBr,P4mm,758,FALSE,bottom-up,,380,2dm-3775
2dm-453,2,NdCl3,Pmmn,3722,TRUE,bottom-up,15,91,2dm-3780
2dm-454,2,S4O9,P-3,3028,TRUE,bottom-up,59,79,2dm-3524
2dm-455,2,Bi2S3,Pmn2_1,1307,FALSE,bottom-up,109,161,2dm-4755
2dm-456,2,P2Se5,P2_1/c,64,FALSE,bottom-up,111,44,
2dm-457,2,NiF2,P2_1/c,4304,FALSE,bottom-up,227,251,2dm-3562
2dm-458,2,PbSe,P3m1,1963,FALSE,bottom-up,228,385,2dm-3977
2dm-459,2,TcF2,P-3m1,0,FALSE,bottom-up,494,57,2dm-3745
2dm-46,2,Mg2Sb,P-3m1,0,FALSE,bottom-up,498,415,2dm-3665
2dm-460,2,IrBr2,P-3m1,0,FALSE,bottom-up,511,97,2dm-4948
2dm-461,2,HfSe5,Pmmn,204,TRUE,bottom-up,0,75,2dm-3847
2dm-462,2,In2S5,C2/m,1279,TRUE,bottom-up,8,85,2dm-4985
2dm-463,2,TlSe,P-1,821,FALSE,bottom-up,118,188,2dm-5155
2dm-464,2,Cl2O5,P2_1,2068,TRUE,bottom-up,53,61,2dm-3828
2dm-466,2,GaAs3,P-3m1,603,TRUE,bottom-up,290,293,
2dm-467,2,ScI2,P-6m2,89,FALSE,bottom-up,3,81,2dm-5867
2dm-468,2,TiCl2,P2_1/m,321,FALSE,bottom-up,0,63,2dm-4652
2dm-469,2,Ta2S3,P2_1/m,0,FALSE,bottom-up,82,174,2dm-3670
2dm-47,2,HfPb2,P4/nmm,0,FALSE,bottom-up,426,319,2dm-3413
2dm-470,2,SrBr2,P-4m2,4667,TRUE,bottom-up,214,225,2dm-4009
2dm-471,2,BSe,P-3m1,2887,FALSE,bottom-up,0,46,2dm-4063
2dm-472,2,W3S4,P-3m1,0,FALSE,bottom-up,,32,2dm-4728
2dm-473,2,CN,C2/m,0,FALSE,bottom-up,236,-2,2dm-3474
2dm-474,2,AgS2,P-3m1,0,FALSE,bottom-up,247,351,2dm-3587
2dm-475,2,MoI2,P-3m1,0,FALSE,bottom-up,210,89,2dm-4519
2dm-476,2,PdBr2,P2_1/c,1243,FALSE,bottom-up,3,117,2dm-3562
2dm-477,2,VTe3,P2_1/m,0,FALSE,bottom-up,56,80,2dm-4111
2dm-478,2,Tl2Se5,C2/m,867,FALSE,bottom-up,106,106,2dm-4985
2dm-479,2,Mg5Rh,Pmc2_1,0,FALSE,bottom-up,328,282,2dm-5064
2dm-48,2,BBr,Pbcm,2137,FALSE,bottom-up,1754,63,2dm-4627
2dm-480,2,SbF3,P2_1/c,3892,TRUE,bottom-up,61,116,2dm-4881
2dm-482,2,SnO,Pbcm,2240,TRUE,bottom-up,64,72,2dm-3669
2dm-483,2,TcBr2,P-3m1,0,FALSE,bottom-up,383,81,2dm-3745
2dm-484,2,V2S3,P2_1/m,0,FALSE,bottom-up,44,118,2dm-4813
2dm-485,2,ZnCl2,P-4m2,4478,TRUE,bottom-up,0,,2dm-3966
2dm-486,2,OsCl2,P-3m1,1420,TRUE,bottom-up,518,92,2dm-4243
2dm-487,2,P2S3,Pc,2366,FALSE,bottom-up,33,100,2dm-4755
2dm-488,2,ZrTe2,R-3m,0,FALSE,bottom-up,12,115,2dm-3731
2dm-489,2,CSe,Pmmn,305,FALSE,bottom-up,1581,70,2dm-3338
2dm-49,2,RuC2,P4/mmm,0,FALSE,bottom-up,1928,995,2dm-3563
2dm-490,2,V2Se3,C2/m,92,FALSE,bottom-up,0,75,2dm-4351
2dm-491,2,SrCl2,P-3m1,5894,FALSE,bottom-up,54,71,2dm-4717
2dm-492,2,NbSe2,C2/m,0,FALSE,bottom-up,32,102,2dm-5694
2dm-493,2,TiSi2,P4/nmm,0,FALSE,bottom-up,438,455,2dm-3413
2dm-494,2,CdF2,P31m,3944,TRUE,bottom-up,80,,2dm-5582
2dm-495,2,PI3,P2_1/c,1942,FALSE,bottom-up,25,107,2dm-4881
2dm-496,2,Ga4O3,P2_1/m,693,FALSE,bottom-up,287,64,2dm-3496
2dm-497,2,GeCl2,P-3m1,2763,FALSE,bottom-up,21,71,2dm-3464
2dm-498,2,CdI2,P-4m2,2582,FALSE,bottom-up,0,99,2dm-4713
2dm-499,2,GaCl3,C2/m,3812,FALSE,bottom-up,60,66,2dm-4040
2dm-50,2,HfCl,P-3m1,0,FALSE,bottom-up,0,51,2dm-4412
2dm-500,2,CSe2,P-3m1,0,FALSE,bottom-up,1411,78,2dm-3203
2dm-501,2,AsPb,C2/m,0,FALSE,bottom-up,186,,2dm-3474
2dm-502,2,TiF2,P2_1/m,584,FALSE,bottom-up,164,48,
2dm-503,2,AgCl,P-3m1,1893,TRUE,bottom-up,32,107,2dm-4972
2dm-504,2,As2S3,P2_1/m,976,FALSE,bottom-up,45,94,2dm-3531
2dm-505,2,MnTe2,C2/m,192,FALSE,bottom-up,0,,2dm-4006
2dm-506,2,Y5I8,P2/m,0,FALSE,bottom-up,23,81,2dm-4448
2dm-507,2,Sb9Br2,P2_1/m,0,FALSE,bottom-up,45,82,2dm-3684
2dm-508,2,IrI2,P-3m1,0,FALSE,bottom-up,380,116,2dm-4963
2dm-509,2,AuCl,P4/nmm,334,TRUE,bottom-up,351,90,2dm-4861
2dm-51,2,P2Pt,P-1,0,FALSE,bottom-up,709,308,2dm-4348
2dm-510,2,Zr3S2,P4/mmm,0,FALSE,bottom-up,0,123,2dm-3471
2dm-511,2,TcSe2,P-1,991,FALSE,bottom-up,0,77,2dm-4006
2dm-512,2,ZrHg,P4/nmm,0,FALSE,bottom-up,280,292,2dm-3161
2dm-513,2,InS,P-1,1666,FALSE,bottom-up,19,80,2dm-5155
2dm-514,2,TiF,P-3m1,0,FALSE,bottom-up,0,43,2dm-4412
2dm-515,2,DyF3,Pmmn,7293,TRUE,bottom-up,0,179,2dm-3439
2dm-516,2,GeI4,P4/mmm,0,FALSE,bottom-up,369,214,2dm-4359
2dm-517,2,WF3,P-31m,4126,FALSE,bottom-up,5,66,2dm-3768
2dm-518,2,GeF2,P-3m1,2702,FALSE,bottom-up,237,155,2dm-3464
2dm-519,2,BaF2,P-3m1,6302,FALSE,bottom-up,190,71,2dm-4717
2dm-52,2,BBr3,C2/m,2146,FALSE,bottom-up,686,72,2dm-3681
2dm-520,2,As2Pt,P2_1/m,0,FALSE,bottom-up,494,249,2dm-4348
2dm-521,2,BiF3,P-3,5028,TRUE,bottom-up,117,106,2dm-5507
2dm-522,2,PdSe,P-3m1,0,FALSE,bottom-up,161,72,2dm-3377
2dm-523,2,PtSe2,P2_1/c,1555,FALSE,bottom-up,107,158,2dm-5050
2dm-524,2,PdCl2,P-3m1,407,FALSE,bottom-up,167,72,2dm-3692
2dm-525,2,AuS,Pmmn,0,FALSE,bottom-up,235,88,2dm-3486
2dm-526,2,TaCl5,P-1,2869,FALSE,bottom-up,40,100,
2dm-527,2,Sb2Pt,P2_1/m,0,FALSE,bottom-up,324,198,2dm-4348
2dm-528,2,AsBr3,P-31m,2504,FALSE,bottom-up,29,92,2dm-3628
2dm-529,2,NCl3,Pmn2_1,2239,TRUE,bottom-up,16,44,2dm-3709
2dm-53,2,TiPb2,P4/nmm,0,FALSE,bottom-up,478,283,2dm-3413
2dm-530,2,Te2C,P-3m1,0,FALSE,bottom-up,1364,112,2dm-3203
2dm-531,2,P2O3,P2_1,3850,FALSE,bottom-up,87,62,2dm-3771
2dm-532,2,LuSi2,P4/mmm,0,FALSE,bottom-up,838,,2dm-3059
2dm-533,2,SiF2,P-3m1,1803,FALSE,bottom-up,1039,113,2dm-3464
2dm-534,2,EuBi2,Pm,4,FALSE,bottom-up,395,541,
2dm-535,2,P2Se3,Pc,1821,FALSE,bottom-up,23,113,2dm-4821
2dm-536,2,Al2Te,P-3,458,TRUE,bottom-up,596,399,2dm-5781
2dm-537,2,PuF3,Pmmn,0,FALSE,bottom-up,99,225,2dm-3902
2dm-538,2,Sc2Br3,C2/m,547,FALSE,bottom-up,0,66,2dm-3786
2dm-539,2,LuGe2,P4/mmm,0,FALSE,bottom-up,631,,2dm-3059
2dm-54,2,Al2O3,P-62m,3614,TRUE,bottom-up,582,758,2dm-3374
2dm-540,2,Er6Cl7,P-1,0,FALSE,bottom-up,98,93,2dm-4999
2dm-541,2,Sb4Cl,P2/m,0,FALSE,bottom-up,65,89,2dm-5639
2dm-542,2,TlI3,C2/m,801,FALSE,bottom-up,124,95,2dm-4040
2dm-543,2,Au2Se,P4/nmm,1128,TRUE,bottom-up,48,142,2dm-4305
2dm-544,2,OsF3,P-31m,88,FALSE,bottom-up,389,58,2dm-4487
2dm-545,2,ZnI2,P-3,1936,FALSE,bottom-up,141,80,2dm-5582
2dm-546,2,TlSe,P-6m2,680,FALSE,bottom-up,101,78,2dm-3099
2dm-547,2,BTe,P-1,686,FALSE,bottom-up,280,65,2dm-3756
2dm-548,2,As2O3,Pm,1875,FALSE,bottom-up,330,239,2dm-3968
2dm-549,2,AgS,Pmmn,0,FALSE,bottom-up,176,101,2dm-3486
2dm-55,2,HfF2,P-3m1,0,FALSE,bottom-up,527,59,2dm-3733
2dm-550,2,Sc2Ge,P-3m1,0,FALSE,bottom-up,869,748,2dm-3189
2dm-551,2,Ta2S3,P2_1/m,0,FALSE,bottom-up,82,183,2dm-4813
2dm-552,2,ZnI2,P-4m2,2646,FALSE,bottom-up,19,91,2dm-5027
2dm-553,2,YF3,Pmmn,7107,TRUE,bottom-up,98,172,2dm-3582
2dm-554,2,NdS3,P4/nmm,0,FALSE,bottom-up,51,45,2dm-3921
2dm-555,2,MoBr2,P2_1/c,460,FALSE,bottom-up,732,,2dm-4342
2dm-556,2,P2O3,Pm,1285,TRUE,bottom-up,504,299,2dm-3968
2dm-557,2,RuF2,P-3m1,934,FALSE,bottom-up,565,69,2dm-3574
2dm-558,2,TaSe3,P2_1/m,0,FALSE,bottom-up,51,56,2dm-4301
2dm-559,2,Sn2Os,P4/mmm,0,FALSE,bottom-up,426,244,2dm-3563
2dm-56,2,YbF2,P-3m1,7262,FALSE,bottom-up,107,73,2dm-4965
2dm-560,2,W3Se4,P-3m1,0,FALSE,bottom-up,612,29,2dm-4728
2dm-561,2,PtN2,P2_1/m,0,FALSE,bottom-up,1500,1273,2dm-4348
2dm-562,2,GaBr3,Pmc2_1,3076,FALSE,bottom-up,37,18,2dm-3521
2dm-563,2,AgBr,Cmme,2515,TRUE,bottom-up,70,75,2dm-3495
2dm-564,2,ZrZn,P4/nmm,0,FALSE,bottom-up,465,383,2dm-3161
2dm-565,2,K2O,P31m,480,FALSE,bottom-up,58,104,2dm-3869
2dm-566,2,HfI,P-3m1,0,FALSE,bottom-up,58,60,2dm-4412
2dm-567,2,SiBi,P-1,1021,FALSE,bottom-up,244,97,2dm-4588
2dm-57,2,AlTe,P-6m2,1783,FALSE,bottom-up,0,65,2dm-3530
2dm-570,2,BrO3,P-1,1653,FALSE,bottom-up,40,-84,2dm-3676
2dm-571,2,LaGe3,P6/mmm,0,FALSE,bottom-up,864,,2dm-5552
2dm-572,2,Ga2Se5,P1,1645,FALSE,bottom-up,16,89,2dm-4306
2dm-573,2,Pr2Cl5,P2_1/m,479,FALSE,bottom-up,17,106,2dm-3817
2dm-574,2,GeN,C2/m,1329,FALSE,bottom-up,326,,2dm-3615
2dm-575,2,YBe5,P1,0,FALSE,bottom-up,598,288,2dm-4891
2dm-576,2,WBr3,P-31m,810,TRUE,bottom-up,235,226,2dm-3611
2dm-577,2,RuBr3,P-31m,22,FALSE,bottom-up,37,,2dm-5148
2dm-578,2,BaI2,P-4m2,4156,TRUE,bottom-up,209,290,2dm-4009
2dm-579,2,Ga2S5,C2/m,1684,FALSE,bottom-up,0,75,2dm-4985
2dm-58,2,NdC2,P4/mmm,0,FALSE,bottom-up,660,259,2dm-3714
2dm-580,2,YGe3,P6/mmm,0,FALSE,bottom-up,780,801,2dm-5552
2dm-581,2,Tb2Sn,P-3m1,0,FALSE,bottom-up,811,651,2dm-4563
2dm-582,2,B2O3,Pmc2_1,3340,FALSE,bottom-up,108,16,2dm-5005
2dm-583,2,TiBr2,P2_1/m,256,FALSE,bottom-up,0,69,
2dm-584,2,ScI3,C2/m,1963,FALSE,bottom-up,0,88,2dm-4486
2dm-585,2,SnN,C2/m,292,FALSE,bottom-up,383,,2dm-3474
2dm-587,2,GeBi,P-1,764,FALSE,bottom-up,146,118,2dm-3615
2dm-588,2,ZrAg,P4/nmm,0,FALSE,bottom-up,246,309,2dm-5074
2dm-589,2,Sb2Se3,Pc,1223,FALSE,bottom-up,61,156,2dm-4821
2dm-59,2,TlS,P-6m2,793,FALSE,bottom-up,147,73,2dm-3099
2dm-590,2,ScSe3,P4/nmm,0,FALSE,bottom-up,44,48,2dm-4856
2dm-591,2,BCl,Pbcm,2429,FALSE,bottom-up,1745,34,2dm-4627
2dm-592,2,CN,P-1,0,FALSE,bottom-up,235,-5,2dm-3615
2dm-593,2,AgCl,Cmme,2681,TRUE,bottom-up,40,81,2dm-3495
2dm-5930,1,As,P4/mmm,0,FALSE,bottom-up,535,228,2dm-3056
2dm-5931,1,Al,P4/mmm,0,FALSE,bottom-up,989,947,2dm-3042
2dm-5932,1,P,P4/mmm,0,FALSE,bottom-up,550,156,2dm-3056
2dm-5933,1,Al,Pmma,0,FALSE,bottom-up,548,457,2dm-2994
2dm-5934,1,Si,P-3m1,0,TRUE,bottom-up,641,280,2dm-3095
2dm-5935,1,In,P4/mmm,0,FALSE,bottom-up,478,595,2dm-3042
2dm-5936,1,N2,Pmma,2969,FALSE,bottom-up,0,32,2dm-4566
2dm-5937,1,Ga,P6/mmm,0,FALSE,bottom-up,437,514,2dm-3103
2dm-5938,1,Cl2,P4/mmm,0,FALSE,bottom-up,0,141,2dm-4714
2dm-5939,1,S,Pmma,0,FALSE,bottom-up,343,146,2dm-3120
2dm-594,2,In2Se,P3,860,TRUE,bottom-up,129,158,2dm-5781
2dm-5940,1,Bi,P4/mmm,0,FALSE,bottom-up,595,557,2dm-3056
2dm-5941,1,Sn,P-3m1,0,TRUE,bottom-up,460,472,2dm-3095
2dm-5942,1,Se,P4/mmm,0,FALSE,bottom-up,199,148,2dm-5305
2dm-5943,1,Pb,P-3m1,0,FALSE,bottom-up,584,578,2dm-3095
2dm-5944,1,Tl,P4/mmm,0,FALSE,bottom-up,426,589,2dm-3042
2dm-5945,1,B,P4/mmm,0,FALSE,bottom-up,1638,102,2dm-3042
2dm-5946,1,N2,P-3m1,3811,FALSE,bottom-up,0,42,2dm-3356
2dm-5947,1,Cl2,Pbam,2343,FALSE,bottom-up,0,139,2dm-5522
2dm-5948,1,Si,P4/mmm,0,FALSE,bottom-up,894,649,2dm-3274
2dm-5949,1,In,Pmma,0,FALSE,bottom-up,231,283,2dm-2994
2dm-595,2,ZnF2,P-3m1,4665,TRUE,bottom-up,73,,2dm-4402
2dm-5950,1,Sn,P-3m1,0,FALSE,bottom-up,170,184,2dm-3144
2dm-5951,1,Tl,Pmma,0,FALSE,bottom-up,223,278,2dm-2994
2dm-5952,1,Pd,P-3m1,0,FALSE,bottom-up,517,-7,2dm-3259
2dm-5953,1,N2,P4/mmm,3306,TRUE,bottom-up,0,44,2dm-3056
2dm-5954,1,Mg,Cmmm,0,FALSE,bottom-up,1044,867,2dm-5000
2dm-5955,1,Ge,P4/mmm,0,FALSE,bottom-up,693,,2dm-3274
2dm-5956,1,As,Pm,1246,FALSE,bottom-up,58,0,2dm-3020
2dm-5957,1,S,P2/m,0,FALSE,bottom-up,251,72,2dm-3153
2dm-5958,1,N2,Pmna,0,FALSE,bottom-up,0,104,2dm-3404
2dm-5959,1,P,P2_1/m,107,FALSE,bottom-up,171,119,2dm-4275
2dm-596,2,FeB2,P4/mmm,0,FALSE,bottom-up,1130,,2dm-3244
2dm-5960,1,Sb,Pbam,0,FALSE,bottom-up,484,375,2dm-3365
2dm-5961,1,Ba,P4/mmm,0,FALSE,bottom-up,879,888,2dm-5000
2dm-5962,1,Sb,Pm,907,FALSE,bottom-up,128,0,2dm-3020
2dm-5963,1,Si,Cmmm,0,FALSE,bottom-up,885,607,2dm-5357
2dm-5964,1,As,Pbam,0,FALSE,bottom-up,454,227,2dm-3365
2dm-5965,1,Bi,Pm,705,FALSE,bottom-up,160,0,2dm-3020