22,nelements,Formula,Spacegroup,Bandgap (meV),Is gap direct?,Discovery process,Decomposition energy (meV/atom),Exfoliation energy (meV/atom),Obtained from
2dm-3935,3,CaCr2F12,P-1,1404,FALSE,top-down,4,25,mvc-14383
2dm-3937,3,Sb2TeSe2,P-3m1,753,FALSE,top-down,372,72,mp-571550
2dm-3939,3,ZrTe2Br5,P2/m,1122,FALSE,top-down,0,126,mp-28671
2dm-3940,3,CdCN2,P3m1,0,FALSE,top-down,1336,76,mp-621694
2dm-3942,3,Mn(HO)2,P3m1,2054,TRUE,top-down,225,57,mp-625668
2dm-3943,3,Lu4B3C4,P-1,0,FALSE,top-down,437,,mp-567908
2dm-3944,3,BaCaI4,P2/m,3733,TRUE,top-down,33,84,mp-753575
2dm-3945,3,AuClO2,P222_1,1132,TRUE,top-down,6,67,mp-997092
2dm-3947,3,Te3(PdBr)4,P-1,737,FALSE,top-down,0,89,mp-638749
2dm-3948,3,TiCo3O8,P-3m1,67,FALSE,top-down,285,196,mp-765864
2dm-3950,3,ZrTiTe4,P2/m,0,FALSE,top-down,25,113,mp-8677
2dm-3951,3,Hg2SO4,P2/c,2413,FALSE,top-down,6,194,mp-7461
2dm-3952,3,Tl2SnS3,Pmma,1333,FALSE,top-down,21,57,mp-542623
2dm-3954,3,Mn3SbO8,C2/m,0,FALSE,top-down,94,66,mp-776354
2dm-3957,3,Ti2ZnO5,Pmmn,3156,FALSE,top-down,259,248,mvc-8123
2dm-3958,3,LiCu2F5,P2_1/m,516,FALSE,top-down,98,29,mp-867590
2dm-3960,3,Sc2Te5O13,P1,3139,FALSE,top-down,50,,mp-558571
2dm-3963,3,Te6Br2O11,Pmma,2400,FALSE,top-down,23,137,mp-29251
2dm-3965,3,VOF3,Pca2_1,3169,TRUE,top-down,34,30,mp-764241
2dm-3967,3,Zn2In2S5,P3m1,0,FALSE,top-down,102,,mp-542644
2dm-3969,3,BaCaI4,P2_12_12,3969,TRUE,top-down,141,164,mp-766348
2dm-3970,3,PbWO4,Pmna,2491,FALSE,top-down,285,103,mp-641441
2dm-3971,3,TlSbO3,P312,2898,FALSE,top-down,134,192,mp-561465
2dm-3974,3,Fe4Cu2S7,Pmma,0,FALSE,top-down,214,38,mp-540724
2dm-3976,3,Si3Bi2O9,P-6,4246,FALSE,top-down,158,251,mp-558672
2dm-3978,3,SnBrF,P4/nmm,2306,FALSE,top-down,28,65,mp-989193
2dm-3979,3,SbOF,Pmn2_1,3179,FALSE,top-down,86,53,mp-756654
2dm-3980,3,TiPb9O11,P4,2773,FALSE,top-down,59,81,mp-674350
2dm-3981,3,UTeO,P4/nmm,0,FALSE,top-down,0,69,mp-3037
2dm-3982,3,Ba2Ti3O7,Pmm2,0,FALSE,top-down,279,11,mvc-1214
2dm-3983,3,Bi2PbSe4,P-3m1,950,FALSE,top-down,2,53,mp-675543
2dm-3985,3,Zn(InS2)2,P3m1,0,FALSE,top-down,77,,mp-541937
2dm-3986,3,TiBi2O5,Pmmn,1985,FALSE,top-down,192,156,mp-755121
2dm-3987,3,Lu2Te5O13,P1,3078,FALSE,top-down,49,,mp-557829
2dm-3988,3,MnSb2F12,P-1,3184,FALSE,top-down,0,29,mp-555052
2dm-3989,3,Zn2Ag2O5,Pmc2_1,0,FALSE,top-down,238,54,mvc-3842
2dm-3991,3,Sc2Te5O13,P-1,3063,FALSE,top-down,14,,mp-558571
2dm-3992,3,Mg(SbO2)2,Pmc2_1,1363,FALSE,top-down,326,90,mvc-5732
2dm-3994,3,Ba2LiN,P-4m2,0,FALSE,top-down,247,226,mp-605860
2dm-3995,3,Li3Fe2F9,P-6,4104,TRUE,top-down,110,87,mp-775687
2dm-3996,3,Ti3H2O7,P1,2974,FALSE,top-down,92,55,mp-626566
2dm-3997,3,CoTeO4,P2/m,1054,TRUE,top-down,29,,mp-771247
2dm-3998,3,Fe(PS3)2,C2,64,FALSE,top-down,126,67,mp-753614
2dm-3999,3,Re3Se4Cl,P-1,1247,FALSE,top-down,0,67,mp-580748
2dm-4000,3,ZnBi2O5,Pmma,0,FALSE,top-down,263,,mvc-8219
2dm-4001,3,Ga2Fe2S5,P-3m1,0,FALSE,top-down,179,27,mp-608823
2dm-4002,3,Sb2WO6,P2_1/c,1130,FALSE,top-down,45,111,mp-541435
2dm-4003,3,VTeO4,P2_1/c,2388,FALSE,top-down,110,,mp-566857
2dm-4004,3,PuIO,P4/nmm,0,FALSE,top-down,598,766,mp-647604
2dm-4005,3,Sb4O5F2,P2_1/c,3414,FALSE,top-down,50,,mp-753445
2dm-4007,3,K(MoO3)3,P2/m,465,FALSE,top-down,89,,mp-19607
2dm-4008,3,Ti3H2O7,P-1,2932,FALSE,top-down,92,22,mp-626547
2dm-4015,3,VOF3,P1,2749,FALSE,top-down,31,,mp-777150
2dm-4017,3,CrAgSe2,P3m1,0,FALSE,top-down,237,284,mp-3532
2dm-4018,3,LiTeO3,P2,2537,FALSE,top-down,183,196,mp-755231
2dm-4019,3,H2WO4,Pmn2_1,1493,TRUE,top-down,103,109,mp-32543
2dm-4020,3,Zn2W2O5,Pm,0,FALSE,top-down,564,173,mvc-3990
2dm-4021,3,Zn(SbO2)2,C2,2384,FALSE,top-down,122,28,mvc-7295
2dm-4025,3,Mg2Mo3O8,P2/m,1446,FALSE,top-down,267,,mvc-14313
2dm-4026,3,Ca(SbO2)2,P2_1/m,2200,TRUE,top-down,98,,mvc-7329
2dm-4027,3,Mg2Al2Se5,P-3m1,1261,TRUE,top-down,5,25,mp-29624
2dm-4028,3,Y2Te5O13,P-1,3066,FALSE,top-down,14,,mp-554852
2dm-4029,3,Mg2Ag2O5,Pmm2,0,FALSE,top-down,223,,mvc-3766
2dm-4031,3,Ta3Te14Pd3,P2_1/m,0,FALSE,top-down,,,mp-505132
2dm-4034,3,Fe(HO)2,P-3m1,0,FALSE,top-down,212,65,mp-626680
2dm-4036,3,VZnF4,P-1,0,FALSE,top-down,346,,mvc-3525
2dm-4037,3,Ti3H2O7,P2_1,2560,FALSE,top-down,152,14,mp-626565
2dm-4038,3,Be(BC)2,Pmm2,0,FALSE,top-down,798,,mp-569299
2dm-4041,3,Li2BiO3,P2/m,0,FALSE,top-down,886,,mp-753162
2dm-4043,3,ZrPbF6,Cmme,5322,TRUE,top-down,65,170,mp-7310
2dm-4045,3,Lu2Te5O13,P-1,3163,FALSE,top-down,10,,mp-557829
2dm-4046,3,V2Re2O11,P1,1283,FALSE,top-down,148,,mp-704848
2dm-4047,3,Sb2Te2Se,P-3m1,639,FALSE,top-down,671,76,mp-3525
2dm-4048,3,CuBiO2,P2_1/m,1423,FALSE,top-down,53,111,mp-997054
2dm-4049,3,FePS3,P-31m,0,FALSE,top-down,137,81,mp-5864
2dm-4052,3,Ta3(OF)5,Pmmm,2202,FALSE,top-down,85,36,mp-756593
2dm-4056,3,NaBF4,Pmmn,7533,TRUE,top-down,0,,mp-3521
2dm-4057,3,Cr3Sb5O16,Cm,0,FALSE,top-down,197,106,mp-777918
2dm-4059,3,Si2H2O5,Pc,5700,FALSE,top-down,41,18,mp-626083
2dm-4064,3,Y2(CuO2)3,C2/m,0,FALSE,top-down,331,,mvc-12773
2dm-4066,3,CrCuO4,Pmma,116,FALSE,top-down,69,127,mp-504927
2dm-4067,3,MgPSe3,P-31m,2421,FALSE,top-down,0,70,mp-30943
2dm-4070,3,Zr3(Al2C3)2,P-3m1,0,FALSE,top-down,133,,mp-569831
2dm-4071,3,Zn2Co3O8,P2/m,1,FALSE,top-down,215,,mvc-14025
2dm-4072,3,NbV3O10,P-4m2,1667,TRUE,top-down,95,79,mp-776661
2dm-4075,3,K2CoSe2,Pccm,0,FALSE,top-down,122,,mp-8768
2dm-4076,3,CoAsS,Pca2_1,0,FALSE,top-down,299,92,mp-613314
2dm-4079,3,Mg(BH4)2,Pmc2_1,6594,FALSE,top-down,0,23,mp-571156
2dm-4081,3,Mn5O9F,P1,703,FALSE,top-down,67,55,mp-766870
2dm-4085,3,Si2H2O5,P1,2853,TRUE,top-down,212,95,mp-626085
2dm-4086,3,TlSbO3,P-31m,2952,FALSE,top-down,0,39,mp-30058
2dm-4088,3,Ba2Ni3O7,P2/m,0,FALSE,top-down,411,26,mvc-1422
2dm-4091,3,HgIBr,Cm,2228,FALSE,top-down,30,93,mp-570172
2dm-4092,3,Co2SbO6,P-31m,0,FALSE,top-down,220,72,mp-859782
2dm-4093,3,Sn3(P2O7)2,P-1,2931,FALSE,top-down,63,21,mp-673118
2dm-4095,3,Bi4O5F2,P2_1/c,3484,FALSE,top-down,150,,mp-753699
2dm-4096,3,Ca(BiO2)4,Pm,744,FALSE,top-down,182,117,mvc-10702
2dm-4099,3,SmGa2Co,P4/mmm,0,FALSE,top-down,348,,mp-980004
2dm-4100,3,RbPbF3,P-1,4025,TRUE,top-down,20,4,mp-605350
2dm-4102,3,Ge3(Te3As)2,P-3m1,502,FALSE,top-down,18,39,mp-541312
2dm-4103,3,Mn(CoO3)2,C2/m,1455,FALSE,top-down,22,,mp-763057
2dm-4105,3,Pb(ClO2)2,P4/nbm,1604,FALSE,top-down,146,60,mp-615141
2dm-4106,3,La2(BiO2)7,P1,0,FALSE,top-down,77,,mp-753524
2dm-4107,3,AgBiO2,P2/m,39,FALSE,top-down,227,238,mp-996970
2dm-4108,3,Zn2Cr3O8,P2/m,605,FALSE,top-down,220,,mvc-14026
2dm-4109,3,Mg3(HO2)2,P-3m1,2567,TRUE,top-down,25,28,mp-30243
2dm-4113,3,Mg(AlSe2)2,P-3m1,1217,TRUE,top-down,2,23,mp-9479
2dm-4114,3,BaV4O8,P-31m,0,FALSE,top-down,308,29,mvc-1037
2dm-4115,3,MgPS3,P-31m,3053,FALSE,top-down,0,63,mp-675651
2dm-4116,3,MnCoO4,P2/m,0,FALSE,top-down,171,83,mp-771797
2dm-4117,3,Ca(SnO2)2,Pmmn,3144,FALSE,top-down,134,39,mvc-6844
2dm-4118,3,VCl2O,Pmmm,1070,FALSE,top-down,96,60,mp-540793
2dm-4119,3,CaTi4O9,P4/n,2966,FALSE,top-down,166,167,mvc-10066
2dm-4121,3,Ti3H2O7,Pm,2838,FALSE,top-down,,91,mp-626550
2dm-4122,3,Mn(PO4)2,P-1,0,FALSE,top-down,212,187,mp-767220
2dm-4123,3,CrSiTe3,P-31m,592,FALSE,top-down,0,86,mp-3779
2dm-4124,3,TlFeSe2,C2/m,0,FALSE,top-down,81,,mp-9810
2dm-4126,3,HfSnO3,P-31m,3576,FALSE,top-down,65,37,mp-776083
2dm-4127,3,Nb2CrO8,P2/c,488,TRUE,top-down,258,33,mvc-480
2dm-4129,3,TiOF2,P2_1,3832,FALSE,top-down,59,84,mp-753858
2dm-4131,3,CaSb2O5,Pmm2,0,FALSE,top-down,309,73,mvc-4397
2dm-4132,3,LiCuO,Pmma,1252,FALSE,top-down,186,153,mp-755646
2dm-4134,3,KV4O10,Amm2,0,FALSE,top-down,50,61,mp-767780
2dm-4137,3,MgMn2O5,Pmmn,0,FALSE,top-down,566,,mvc-11965
2dm-4139,3,Li4VF8,P2,2022,TRUE,top-down,135,,mp-766941
2dm-4140,3,S(IO3)2,C2,2116,FALSE,top-down,0,84,mp-30984
2dm-4142,3,Bi2Pb2Se5,P-3m1,806,FALSE,top-down,4,39,mp-570930
2dm-4149,3,Sb5O7F,P-1,3066,FALSE,top-down,81,,mp-757173
2dm-4151,3,LiVF4,Pmma,2167,FALSE,top-down,165,136,mp-778409
2dm-4152,3,SbPO4,Pmc2_1,3190,TRUE,top-down,117,216,mp-770401
2dm-4155,3,GaGeTe,P-3m1,768,FALSE,top-down,3,33,mp-8211
2dm-4156,3,FeCoO4,P2/m,0,FALSE,top-down,141,53,mp-771871
2dm-4157,3,SrLaBr5,P2_1/m,3117,FALSE,top-down,49,78,mp-756437
2dm-4158,3,TcO3F,P2_1/c,2493,FALSE,top-down,23,43,mp-555390
2dm-4161,3,SrLaI5,P2_1/m,2362,FALSE,top-down,32,76,mp-755705
2dm-4163,3,AlBMo,Pmma,0,FALSE,top-down,306,367,mp-7574
2dm-4166,3,SrH2O3,Pmc2_1,3027,FALSE,top-down,12,-234,mp-642654
2dm-4171,3,V2ZnO5,Pmmn,2176,FALSE,top-down,215,,mvc-11970
2dm-4172,3,TePdI2,P-1,547,FALSE,top-down,14,74,mp-573321
2dm-4173,3,LiVF4,P2_1/c,2195,TRUE,top-down,57,,mp-776621
2dm-4174,3,VZnO2,P1,0,FALSE,top-down,331,160,mvc-5157
2dm-4176,3,AgO2F,P2_1/m,0,FALSE,top-down,0,78,mp-997101
2dm-4179,3,SbClO,P4/nmm,1996,FALSE,top-down,43,60,mp-989196
2dm-4180,3,ZnNi2O5,Pmmn,0,FALSE,top-down,132,43,mvc-12566
2dm-4181,3,MgFe4O9,P2/c,6,FALSE,top-down,368,144,mvc-10701
2dm-4182,3,SbPO4,P2_1/m,4364,FALSE,top-down,0,103,mp-3439
2dm-4183,3,ZrBrN,P-3m1,2572,FALSE,top-down,0,35,mp-541912
2dm-4184,3,Ta2CrO8,P2/c,0,FALSE,top-down,337,,mvc-3013
2dm-4187,3,Mg(HO)2,P3m1,4014,TRUE,top-down,256,54,mp-626149
2dm-4190,3,Sr4As2O,P4/mmm,0,FALSE,top-down,1666,1872,mp-8299
2dm-4191,3,LiVO3,P2/c,3235,FALSE,top-down,92,,mp-19373
2dm-4192,3,HgPSe3,P-1,1362,FALSE,top-down,0,77,mp-7293
2dm-4193,3,Hg2WO4,P2/c,2239,TRUE,top-down,19,115,mp-32542
2dm-4197,3,U(BO3)2,C2,2271,FALSE,top-down,26,81,mp-31013
2dm-4199,3,LaHBr2,P-6m2,3723,FALSE,top-down,0,58,mp-696944
2dm-4200,3,Au2Se3O10,Cm,1018,FALSE,top-down,6,125,mp-559824
2dm-4202,3,Li6Br3N,P2/m,1821,FALSE,top-down,119,160,mp-34326
2dm-4203,3,Li3SbS3,P-3,2623,FALSE,top-down,67,96,mp-755463
2dm-4207,3,ZnSnO2,P1,1166,FALSE,top-down,153,39,mvc-4962
2dm-4210,3,Li2VF6,Pmn2_1,2165,FALSE,top-down,66,102,mp-859136
2dm-4211,3,Sb(MoO4)2,P2/c,0,FALSE,top-down,143,27,mp-510758
2dm-4212,3,Zn2In2S5,P3m1,0,FALSE,top-down,101,,mp-560806
2dm-4213,3,Sm(AlCl4)2,P2/c,257,FALSE,top-down,114,58,mp-569569
2dm-4215,3,CaGeO3,P-1,3562,FALSE,top-down,98,,mp-17761
2dm-4216,3,Si2Ag6O7,P2/c,762,FALSE,top-down,122,,mp-561313
2dm-4217,3,Li2VF6,P-3m1,1994,FALSE,top-down,68,20,mp-764434
2dm-4218,3,TaAsO4,Pmc2_1,1619,TRUE,top-down,225,237,mp-756401
2dm-4219,3,Hg3SO6,P1,935,FALSE,top-down,55,176,mp-30890
2dm-4220,3,Mg(Mo3O8)2,P3m1,729,FALSE,top-down,238,,mvc-12777
2dm-4222,3,TmFeGe2,P4/nmm,0,FALSE,top-down,384,341,mp-971806
2dm-4223,3,Eu(ReO4)2,P-3,314,FALSE,top-down,0,68,mp-754760
2dm-4225,3,CuSe2Cl,P222_1,778,FALSE,top-down,0,102,mp-31038
2dm-4226,3,Tl2GeS3,P-1,2252,FALSE,top-down,21,122,mp-7277
2dm-4232,3,Mg(SbO2)4,P1,1933,FALSE,top-down,214,67,mvc-10706
2dm-4233,3,Fe3OF7,P3m1,2760,FALSE,top-down,113,50,mp-774191
2dm-4234,3,Ta2MoO8,P2/c,903,FALSE,top-down,269,29,mvc-2968
2dm-4235,3,LiVF6,P2_1,3186,TRUE,top-down,38,-4,mp-777453
2dm-4236,3,MnPS3,P-31m,655,TRUE,top-down,8,66,mp-8613
2dm-4237,3,V2ZnS5,Pmmn,0,FALSE,top-down,399,234,mvc-14775
2dm-4238,3,Bi7(S3Cl)3,Pm,460,FALSE,top-down,157,50,mp-676611
2dm-4239,3,K5NO4,P1,0,FALSE,top-down,201,3,mp-703272
2dm-4240,3,LiCuO2,P-1,624,FALSE,top-down,32,30,mp-753845
2dm-4241,3,Pr(ReO4)2,P-3,0,FALSE,top-down,9,92,mp-754632
2dm-4244,3,ScBrO,P4/nmm,3497,FALSE,top-down,69,42,mp-989190
2dm-4247,3,Hf(Te2Cl3)2,P-1,1189,FALSE,top-down,13,125,mp-29419
2dm-4248,3,YCBr,C2/m,0,FALSE,top-down,0,34,mp-643367
2dm-4250,3,CuBrO2,P222_1,458,TRUE,top-down,36,56,mp-997011
2dm-4251,3,SnGeS3,P2_1/c,1907,FALSE,top-down,0,87,mp-5045
2dm-4252,3,GeClF,P4/nmm,2871,FALSE,top-down,126,58,mp-989197
2dm-4254,3,Tl(IO3)3,P-3,2519,FALSE,top-down,14,131,mp-972032
2dm-4256,3,MgSb2O5,Amm2,0,FALSE,top-down,384,88,mvc-8117
2dm-4257,3,YIO,P4/nmm,3542,FALSE,top-down,0,47,mp-753712
2dm-4261,3,Ba(BSe3)2,C2/m,2172,FALSE,top-down,24,126,mp-570823
2dm-4263,3,Ta2PdS6,C2/m,162,FALSE,top-down,0,83,mp-8435
2dm-4264,3,AgGeO3,Pmc2_1,0,FALSE,top-down,101,98,mp-779664
2dm-4265,3,Hf3(Al2C3)2,P-3m1,0,FALSE,top-down,116,,mp-567970
2dm-4268,3,Ta2WO8,P2/c,1548,FALSE,top-down,284,32,mvc-2975
2dm-4269,3,PbWO4,P2_1/c,3453,FALSE,top-down,48,,mp-540719
2dm-4273,3,Cd(HO)2,P-3m1,2272,TRUE,top-down,34,74,mp-625548
2dm-4276,3,FeOF,Pmmm,814,FALSE,top-down,228,234,mp-763056
2dm-4277,3,Zr2Al4C5,P-3m1,0,FALSE,top-down,146,,mp-571419
2dm-4278,3,Bi2Te5Pb2,P-3m1,0,FALSE,top-down,64,,mp-569044
2dm-4279,3,Zn(SnN)2,P-4m2,0,FALSE,top-down,265,,mvc-15702
2dm-4280,3,CuBrO2,P2/m,0,FALSE,top-down,27,143,mp-996993
2dm-4281,3,NbI2O,Pmm2,780,FALSE,top-down,0,67,mp-549720
2dm-4282,3,LiFeF4,P2/m,3172,FALSE,top-down,214,,mp-777677
2dm-4284,3,ZrAl5Ni2,P4/mmm,0,FALSE,top-down,618,633,mp-30183
2dm-4285,3,AlNiF5,Pmmm,165,FALSE,top-down,635,688,mvc-14726
2dm-4286,3,HfBrN,P-3m1,3135,FALSE,top-down,12,36,mp-30302
2dm-4288,3,Ca(ClO2)2,P4/nbm,2930,FALSE,top-down,139,56,mp-561366
2dm-4289,3,CrPS4,C2/m,734,TRUE,top-down,0,71,mp-542096
2dm-4291,3,Ni(ClO4)2,P-3,4031,FALSE,top-down,0,22,mp-540966
2dm-4292,3,Te(HO2)2,Pc,2025,TRUE,top-down,25,48,mp-625526
2dm-4293,3,Sm2(PPt2)3,P-4m2,0,FALSE,top-down,119,,mp-570141
2dm-4294,3,Ba2Ti3O8,P4/mmm,743,FALSE,top-down,198,8,mvc-14876
2dm-4296,3,Nb3IrSe8,C2,0,FALSE,top-down,11,88,mp-675066
2dm-4297,3,CaBi2O5,Pmm2,0,FALSE,top-down,252,115,mvc-4429
2dm-4299,3,Sn(WO4)2,P-1,3408,TRUE,top-down,157,59,mvc-668
2dm-4303,3,Ge3(BiTe3)2,P3m1,0,FALSE,top-down,38,,mp-540687
2dm-4307,3,Bi3O2F5,Pmc2_1,3596,FALSE,top-down,48,,mp-759405
2dm-4308,3,Sb(WO4)2,P-1,0,FALSE,top-down,212,64,mvc-636
2dm-4309,3,Ba4As2O,P4/mmm,0,FALSE,top-down,1619,,mp-8300
2dm-4310,3,MoPO5,P4/n,3159,FALSE,top-down,14,107,mp-504818
2dm-4311,3,KAsO2,Pbcm,4141,FALSE,top-down,0,57,mp-30298
2dm-4313,3,SmIO,P-3m1,2714,TRUE,top-down,74,41,mp-754960
2dm-4317,3,Ca3SiBr2,Cm,0,FALSE,top-down,183,,mp-568791
2dm-4318,3,Te2Pd3Pb2,Pmmn,0,FALSE,top-down,13,135,mp-605028
2dm-4321,3,HAuO2,P2/m,1386,FALSE,top-down,40,86,mp-996955
2dm-4322,3,Mg(BiO2)2,P2_1/m,2665,FALSE,top-down,105,,mvc-7302
2dm-4323,3,LiCuO2,Cm,503,FALSE,top-down,71,100,mp-773044
2dm-4325,3,FeOF,Pmmn,1956,FALSE,top-down,55,51,mp-765183
2dm-4328,3,Li2UO4,P4/mmm,0,FALSE,top-down,821,688,mp-7724
2dm-4329,3,Mg(SnO2)2,C2/m,1381,FALSE,top-down,176,70,mvc-7303
2dm-4331,3,LuBiO3,P-3,3238,FALSE,top-down,223,292,mp-772801
2dm-4333,3,VO2F,P2_1/c,1728,TRUE,top-down,88,52,mp-764315
2dm-4334,3,CuAgO2,P2/m,0,FALSE,top-down,73,193,mp-7237
2dm-4335,3,CuCN2,Pmma,0,FALSE,top-down,194,115,mp-3421
2dm-4336,3,KBi2F7,P1,229,TRUE,top-down,219,228,mp-675634
2dm-4337,3,CaTlCl3,Pmma,3563,TRUE,top-down,47,154,mp-998787
2dm-4338,3,Ba(CoO2)4,P-31m,12,FALSE,top-down,252,32,mvc-1039
2dm-4339,3,Ce4C2Br5,Pmmm,0,FALSE,top-down,7,105,mp-574262
2dm-4343,3,CrPO5,P-1,377,FALSE,top-down,44,26,mp-773520
2dm-4345,3,LiVF5,P2_1,1925,FALSE,top-down,51,48,mp-765024
2dm-4347,3,Ga2NiS4,P-3m1,0,FALSE,top-down,54,29,mp-6959
2dm-4349,3,V3OF11,P1,1678,TRUE,top-down,53,32,mp-765772
2dm-4352,3,TiMn3O8,P-3m1,1695,TRUE,top-down,74,,mp-771787
2dm-4353,3,Fe2C2O7,C2,2109,FALSE,top-down,67,20,mp-763673
2dm-4354,3,La4C2Br5,Pmmm,0,FALSE,top-down,10,107,mp-569873
2dm-4355,3,SmSI,P-3m1,2874,FALSE,top-down,0,44,mp-541073
2dm-4356,3,BiTeBr,P3m1,1651,FALSE,top-down,0,104,mp-33723
2dm-4357,3,TiSnO3,P-3,2214,FALSE,top-down,0,33,mp-754246
2dm-4358,3,BaSb2F12,P1,3522,TRUE,top-down,0,30,mp-554765
2dm-4361,3,Zn2CrN2,C2/m,0,FALSE,top-down,409,,mvc-15395
2dm-4363,3,BaLaCl5,P2_1/m,3774,FALSE,top-down,90,,mp-753650
2dm-4365,3,Te3SeO8,P-1,2761,FALSE,top-down,20,42,mp-29320
2dm-4366,3,Bi2Rh3S2,C2/m,0,FALSE,top-down,28,,mp-977592
2dm-4367,3,Mn3CrO8,P-3m1,925,FALSE,top-down,56,45,mp-773365
2dm-4368,3,Co(ReO4)2,P-3m1,2144,FALSE,top-down,0,16,mp-31516
2dm-4369,3,CrP2S7,C2,36,FALSE,top-down,32,56,mp-768680
2dm-4370,3,Ba2Cr3O8,P4/mmm,0,FALSE,top-down,337,10,mvc-1121
2dm-4371,3,Y2GeI2,P-3m1,157,FALSE,top-down,0,45,mp-676315
2dm-4372,3,Yb3(SF2)2,P4/mmm,0,FALSE,top-down,589,,mp-558896
2dm-4373,3,BaCr4O8,P-31m,0,FALSE,top-down,410,26,mvc-1038
2dm-4375,3,LuSBr,Pmmn,2922,FALSE,top-down,411,94,mp-560054
2dm-4376,3,Al(HO)3,P2_1/c,4376,TRUE,top-down,63,73,mp-560196
2dm-4379,3,BaLaBr5,P2_1/m,3233,FALSE,top-down,50,,mp-754494
2dm-4380,3,Mg2H2O3,P-3m1,2673,TRUE,top-down,27,33,mp-30244
2dm-4381,3,AgAuCl4,P2/c,812,FALSE,top-down,0,86,mp-570340
2dm-4382,3,Pr4C2Cl5,Pmmm,0,FALSE,top-down,0,123,mp-570498
2dm-4384,3,Co(HO)2,P3m1,2400,TRUE,top-down,271,74,mp-625956
2dm-4385,3,MnPSe3,P-31m,450,TRUE,top-down,0,73,mp-8695
2dm-4387,3,V2CuO6,C2/m,0,FALSE,top-down,164,,mp-550086
2dm-4388,3,Al(HO)3,C2/m,4062,TRUE,top-down,70,79,mp-554883
2dm-4389,3,CeBrO,P-3m1,0,FALSE,top-down,19,38,mp-755464
2dm-4390,3,TeHO3,P1,1880,FALSE,top-down,68,,mp-625913
2dm-4392,3,Li2Cr2O7,P-1,2498,FALSE,top-down,23,19,mp-769775
2dm-4393,3,S(IN)2,P-1,1551,TRUE,top-down,447,129,mp-616514
2dm-4395,3,PrBrO,P4/nmm,4665,TRUE,top-down,0,70,mp-975666
2dm-4397,3,TiMn2O6,C2/m,1767,FALSE,top-down,82,59,mp-775831
2dm-4398,3,Mg2Sn3O8,P2/m,2526,FALSE,top-down,224,198,mvc-15812
2dm-4399,3,LiCuF4,Pc,0,FALSE,top-down,320,287,mp-753342
2dm-4400,3,AgTeO3,P2_1/m,1188,TRUE,top-down,115,203,mp-561489
2dm-4407,3,Bi2OF4,P2/c,4106,TRUE,top-down,74,132,mp-753309
2dm-4408,3,Mg(SnO2)2,Pmmn,3118,TRUE,top-down,160,33,mvc-6826
2dm-4410,3,NiPS3,P-31m,47,FALSE,top-down,64,61,mp-676040
2dm-4413,3,K2Bi3F11,P1,0,FALSE,top-down,198,,mp-675978
2dm-4414,3,Li2(FeO2)3,P31m,0,FALSE,top-down,295,,mp-762575
2dm-4415,3,BiSbO3,P-3,2805,TRUE,top-down,138,186,mp-755382
2dm-4416,3,SnSO4,P-1,3958,FALSE,top-down,40,41,mp-645740
2dm-4417,3,Ca2CoO3,P4/mmm,908,TRUE,top-down,218,5,mvc-16207
2dm-4419,3,Mn2CrO6,C2/m,740,FALSE,top-down,71,45,mp-775006
2dm-4420,3,Co(IO3)2,P1,2585,FALSE,top-down,101,169,mp-774228
2dm-4421,3,Mn2CoO6,C2/m,1527,FALSE,top-down,21,,mp-761501
2dm-4422,3,V2NiSe4,P-3m1,0,FALSE,top-down,120,77,mp-569662
2dm-4423,3,Nb2SiTe4,Pm,0,FALSE,top-down,302,113,mp-690578
2dm-4426,3,LiCu3F10,Pc,0,FALSE,top-down,0,,mp-760825
2dm-4427,3,Sr2CoO3,P4/mmm,849,TRUE,top-down,246,116,mp-644424
2dm-4428,3,V3H5O8,P1,1483,FALSE,top-down,108,,mp-626221
2dm-4430,3,Ca(SnN)2,P-4m2,0,FALSE,top-down,280,40,mvc-13410
2dm-4431,3,Zr2HBr2,P2_1/m,0,FALSE,top-down,24,41,mp-642803
2dm-4433,3,Cu(IO3)2,P2_1/m,426,FALSE,top-down,20,68,mp-556582
2dm-4434,3,CuO2F,Pmn2_1,0,FALSE,top-down,0,,mp-997044
2dm-4435,3,TlBrO3,P3m1,3399,FALSE,top-down,180,,mp-29798
2dm-4437,3,Sc(IO3)3,P-3,3982,FALSE,top-down,0,122,mp-30002
2dm-4438,3,ZnSnO2,C2/m,2442,FALSE,top-down,109,58,mvc-14586
2dm-4439,3,EuIO,P4/nmm,0,FALSE,top-down,0,51,mp-600622
2dm-4441,3,Ba2Ni3O8,P4/mmm,0,FALSE,top-down,346,20,mvc-13721
2dm-4443,3,Ba2Mn3O7,Pmm2,0,FALSE,top-down,280,6,mvc-1378
2dm-4445,3,AgO2F,P222_1,1092,FALSE,top-down,0,88,mp-997028
2dm-4447,3,AgClO2,P2_1/m,13,FALSE,top-down,0,59,mp-997013
2dm-4450,3,Ti(FeSe2)2,P-1,0,FALSE,top-down,119,65,mp-675929
2dm-4451,3,Zn(SbO2)4,P1,1878,FALSE,top-down,135,98,mvc-2876
2dm-4452,3,SnSO4,Pmn2_1,4189,FALSE,top-down,66,165,mp-542967
2dm-4455,3,TlPd2Se3,P-3m1,956,FALSE,top-down,0,126,mp-7038
2dm-4456,3,TmBrO,P4/nmm,4545,TRUE,top-down,0,47,mp-754969
2dm-4458,3,MgCl2O,P2_1/c,2571,TRUE,top-down,90,44,mp-754645
2dm-4459,3,MgSiO3,P2_1/c,3677,TRUE,top-down,128,,mp-554137
2dm-4460,3,Cr(CoO3)2,C2/m,0,FALSE,top-down,189,21,mp-765852
2dm-4461,3,Bi2Te2S,P4/mmm,573,FALSE,top-down,281,114,mp-632485
2dm-4462,3,CaSnS3,Pmmm,102,FALSE,top-down,305,144,mp-866917
2dm-4464,3,Co2C2O7,C2,715,FALSE,top-down,104,24,mp-763630
2dm-4465,3,DyCoSi2,P4/nmm,0,FALSE,top-down,424,,mp-8742
2dm-4467,3,ZnSnO2,P-1,0,FALSE,top-down,293,,mvc-240
2dm-4468,3,Si2H2O5,P2,5621,FALSE,top-down,45,27,mp-626037
2dm-4471,3,Li2Cu2F5,P2_1/m,101,FALSE,top-down,60,,mp-762270
2dm-4473,3,Mn(IO3)2,P2_1,2759,FALSE,top-down,76,114,mp-771591
2dm-4474,3,LuBrO,P4/nmm,4485,TRUE,top-down,0,46,mp-973981
2dm-4475,3,Sb4I2O5,P2_1/c,2394,FALSE,top-down,26,118,mp-772282
2dm-4476,3,AuBrO2,P222_1,975,FALSE,top-down,0,64,mp-997033
2dm-4477,3,InSiTe3,P3,0,FALSE,top-down,355,194,mp-574250
2dm-4480,3,CuGe2P3,Pm,0,FALSE,top-down,120,16,mp-673663
2dm-4482,3,CrHO2,P2_1/c,2355,FALSE,top-down,140,,mp-691133
2dm-4483,3,Ca2Bi10O17,P1,1962,FALSE,top-down,73,62,mp-677291
2dm-4484,3,BaH4O3,P2_1/m,3613,FALSE,top-down,89,,mp-626726
2dm-4493,3,Ca3(HO3)2,C2/m,1776,FALSE,top-down,183,115,mp-675266
2dm-4495,3,VCl2O,Pmma,1646,FALSE,top-down,85,60,mp-690526
2dm-4497,3,Na2FeO2,P2/c,1273,TRUE,top-down,95,,mp-777915
2dm-4498,3,InPbCl3,Pmma,2786,TRUE,top-down,43,139,mp-998512