material_id,nelements,Formula,Spacegroup,Bandgap (meV),Is gap direct?,Discovery process,Decomposition energy (meV/atom),Exfoliation energy (meV/atom),Obtained from
2dm-2319,2,HoBi2,C222,0,FALSE,bottom-up,359,100,2dm-3946
2dm-232,2,V2S3,P2_1/m,0,FALSE,bottom-up,45,135,2dm-3670
2dm-2320,2,AlBr3,P2/m,1683,TRUE,bottom-up,152,191,2dm-4316
2dm-2321,2,ZnSe,P3m1,0,FALSE,bottom-up,187,21,2dm-4937
2dm-2322,2,TeP,P4/nmm,0,FALSE,bottom-up,372,-11,2dm-3899
2dm-2323,2,Li2Cl,P-3m1,0,FALSE,bottom-up,385,270,2dm-3804
2dm-2324,2,ZrSe,P4/nmm,0,FALSE,bottom-up,325,129,2dm-3004
2dm-2325,2,Ru3S4,P2_1/m,0,FALSE,bottom-up,214,38,2dm-4921
2dm-2326,2,GeO2,C2,1995,FALSE,bottom-up,486,542,2dm-3879
2dm-2327,2,CuI2,P-4m2,0,FALSE,bottom-up,0,98,2dm-4593
2dm-2328,2,BCl3,P1,4461,FALSE,bottom-up,30,50,2dm-4316
2dm-2329,2,Ag2S,P6/mmm,0,FALSE,bottom-up,293,50,2dm-3422
2dm-233,2,Tl2Se5,P1,569,TRUE,bottom-up,77,120,2dm-4306
2dm-2330,2,Ru3Se4,P2_1/m,0,FALSE,bottom-up,206,,2dm-4921
2dm-2331,2,FeSe2,P-3m1,0,FALSE,bottom-up,108,61,2dm-4510
2dm-2332,2,TePb,Pbcm,622,FALSE,bottom-up,206,133,2dm-4574
2dm-2334,2,Sb4Pb3,C2,0,FALSE,bottom-up,210,,2dm-5191
2dm-2335,2,NaBe,P2_1/m,0,FALSE,bottom-up,1220,784,2dm-3098
2dm-2336,2,PtI2,P-1,13,FALSE,bottom-up,237,76,2dm-5213
2dm-2337,2,GePb,P3m1,0,FALSE,bottom-up,632,15,2dm-4906
2dm-2338,2,Ta2Br5,Cm,0,FALSE,bottom-up,489,27,2dm-5407
2dm-2339,2,SbSe,Pc,0,FALSE,bottom-up,211,16,2dm-4903
2dm-234,2,VSe3,P-1,0,FALSE,bottom-up,83,76,2dm-4301
2dm-2340,2,Te4Pd3,P2/m,0,FALSE,bottom-up,256,,2dm-3552
2dm-2341,2,Te2Ru,P-3m1,0,FALSE,bottom-up,324,,2dm-4510
2dm-2342,2,AsI3,P-6m2,377,TRUE,bottom-up,365,-21,2dm-5268
2dm-2343,2,HfO2,P-3m1,4814,FALSE,bottom-up,227,,2dm-4378
2dm-2344,2,Sn3As4,C2,0,FALSE,bottom-up,217,,2dm-5191
2dm-2345,2,NCl5,Pmma,0,FALSE,bottom-up,,29,2dm-5369
2dm-2346,2,Si3Rh,P-6m2,0,FALSE,bottom-up,1359,818,2dm-4883
2dm-2347,2,Ag2Te,P6/mmm,0,FALSE,bottom-up,130,48,2dm-3422
2dm-2348,2,TcO2,Pmmn,0,FALSE,bottom-up,360,67,2dm-4274
2dm-2349,2,NiCl2,P-1,0,FALSE,bottom-up,298,238,2dm-5213
2dm-235,2,I3N,Pmn2_1,403,FALSE,bottom-up,652,-2,2dm-3709
2dm-2350,2,AgTe2,P-4m2,0,FALSE,bottom-up,54,-53,2dm-4374
2dm-2351,2,NaCa,P2_1/m,0,FALSE,bottom-up,362,307,2dm-3098
2dm-2352,2,Al2Te3,Cm,0,FALSE,bottom-up,182,209,2dm-4098
2dm-2353,2,CrAs2,P-1,0,FALSE,bottom-up,452,,2dm-4068
2dm-2354,2,PbCl4,P-1,1225,FALSE,bottom-up,51,,2dm-5245
2dm-2355,2,PSe,Pmc2_1,0,FALSE,bottom-up,285,,2dm-3526
2dm-2356,2,Ba2N,P-4m2,0,FALSE,bottom-up,,,2dm-4910
2dm-2357,2,SeO3,P-6m2,462,FALSE,bottom-up,,43,2dm-4882
2dm-2358,2,Si3As4,C2,0,FALSE,bottom-up,494,,2dm-5191
2dm-2359,2,AuS2,P-4m2,0,FALSE,bottom-up,280,48,2dm-4374
2dm-236,2,Sb2Se3,P2_1/m,728,FALSE,bottom-up,20,114,2dm-4253
2dm-2360,2,SbTe,Pmma,0,FALSE,bottom-up,1024,38,2dm-3526
2dm-2361,2,RbBa,P2_1/m,0,FALSE,bottom-up,367,,2dm-3098
2dm-2362,2,Ni3Se4,P2/m,0,FALSE,bottom-up,382,,2dm-3552
2dm-2363,2,CrP2,P-1,0,FALSE,bottom-up,650,269,2dm-4068
2dm-2364,2,TiN2,P-3m1,0,FALSE,bottom-up,1182,97,2dm-3175
2dm-2365,2,Tc2O7,Pmma,0,FALSE,bottom-up,244,39,2dm-4154
2dm-2366,2,AsS,Pmc2_1,0,FALSE,bottom-up,267,40,2dm-3526
2dm-2367,2,TeAs,P4/nmm,0,FALSE,bottom-up,210,-3,2dm-3899
2dm-2368,2,Te4Os3,C2/m,0,FALSE,bottom-up,399,,2dm-4921
2dm-2369,2,Nb2I5,P1,0,FALSE,bottom-up,307,29,2dm-5407
2dm-237,2,TmBr2,P-3m1,0,FALSE,bottom-up,87,79,2dm-5020
2dm-2370,2,Te2Os,P2/c,0,FALSE,bottom-up,424,,2dm-4350
2dm-2371,2,Cu2S,P6/mmm,0,FALSE,bottom-up,250,38,2dm-3422
2dm-2372,2,BaCl2,P-1,5354,FALSE,bottom-up,306,177,2dm-4672
2dm-2373,2,Cd3P,P6/mmm,0,FALSE,bottom-up,427,447,
2dm-2374,2,Mn2O7,Pmma,0,FALSE,bottom-up,522,518,2dm-4154
2dm-2375,2,PF5,Pmma,1,FALSE,bottom-up,,61,2dm-5369
2dm-2377,2,HoSe,P4mm,0,FALSE,bottom-up,739,6,2dm-4362
2dm-2378,2,HoTe,P4mm,0,FALSE,bottom-up,738,3,2dm-4362
2dm-2379,2,AlSb,P4/mbm,337,FALSE,bottom-up,647,1,2dm-4491
2dm-238,2,TcI2,P-3m1,0,FALSE,bottom-up,224,,2dm-3606
2dm-2380,2,BBr3,P1,3470,FALSE,bottom-up,35,42,2dm-4316
2dm-2381,2,TaO2,P6/mmm,0,FALSE,bottom-up,2386,86,2dm-3895
2dm-2382,2,NF5,Pmma,0,FALSE,bottom-up,,75,2dm-5369
2dm-2383,2,HfSe2,P4/mmm,0,FALSE,bottom-up,424,104,2dm-3183
2dm-2384,2,CeSe,P4/nmm,0,FALSE,bottom-up,272,13,2dm-3397
2dm-2385,2,SnBr2,P-6m2,2405,FALSE,bottom-up,89,159,2dm-3455
2dm-2386,2,PBr3,P-6m2,388,TRUE,bottom-up,473,56,2dm-5268
2dm-2387,2,HfSe,P4/nmm,0,FALSE,bottom-up,510,126,2dm-3004
2dm-2388,2,SiGe,P3m1,73,TRUE,bottom-up,592,,2dm-4906
2dm-2389,2,PbCl2,P-6m2,3430,FALSE,bottom-up,119,207,2dm-3455
2dm-239,2,CCl4,P4/mmm,43,TRUE,bottom-up,971,268,2dm-4359
2dm-2390,2,Si3W,P6/mmm,0,FALSE,bottom-up,1194,630,2dm-4700
2dm-2391,2,SiPb,P3m1,217,FALSE,bottom-up,879,,2dm-4906
2dm-2392,2,CdS,P4/nmm,2289,FALSE,bottom-up,243,161,2dm-4928
2dm-2393,2,BaI2,P-1,4121,FALSE,bottom-up,218,157,2dm-4672
2dm-2394,2,HfP2,P-3m1,0,FALSE,bottom-up,825,192,2dm-3175
2dm-2395,2,As2O3,Pmma,1154,TRUE,bottom-up,353,55,2dm-5775
2dm-2396,2,BiTe,P4/nmm,0,FALSE,bottom-up,242,-2,2dm-3899
2dm-2397,2,Au2Se,P6/mmm,0,FALSE,bottom-up,306,62,2dm-3422
2dm-2399,2,TaTe2,Pmmm,0,FALSE,bottom-up,530,,2dm-4377
2dm-24,2,CdBr2,P-4m2,3024,FALSE,bottom-up,32,91,2dm-4713
2dm-240,2,SiSb,P-1,1314,FALSE,bottom-up,120,84,2dm-4588
2dm-2400,2,Pd3S4,P2/m,0,FALSE,bottom-up,609,347,2dm-3552
2dm-2401,2,HfI4,P4/mmm,526,FALSE,bottom-up,194,,2dm-5172
2dm-2402,2,In2O3,P-3m1,1842,FALSE,bottom-up,,45,2dm-3783
2dm-2403,2,Cd3Bi,P6/mmm,0,FALSE,bottom-up,281,343,
2dm-2404,2,BSb,P4/mbm,233,FALSE,bottom-up,1088,7,2dm-4491
2dm-2405,2,BaCl2,Pmma,3284,TRUE,bottom-up,286,247,2dm-5328
2dm-2406,2,LuP2,C222,0,FALSE,bottom-up,1272,,2dm-3342
2dm-2407,2,ScO3,P-1,0,FALSE,bottom-up,256,288,2dm-4488
2dm-2408,2,KBe,P2_1/m,0,FALSE,bottom-up,1573,799,2dm-3098
2dm-2409,2,ThC2,P4/mmm,0,FALSE,bottom-up,851,279,2dm-3140
2dm-241,2,AgTe,P-1,0,FALSE,bottom-up,57,79,2dm-4023
2dm-2410,2,AsO2,P6/mmm,0,FALSE,bottom-up,,,2dm-3826
2dm-2411,2,CuHg3,P6/mmm,0,FALSE,bottom-up,417,394,2dm-4094
2dm-2412,2,Ge3Mo,P6/mmm,0,FALSE,bottom-up,1019,,2dm-4700
2dm-2413,2,MoPb3,P6/mmm,0,FALSE,bottom-up,1262,,2dm-4700
2dm-2414,2,W3O8,C2/m,1830,FALSE,bottom-up,296,,2dm-4463
2dm-2415,2,TaSe2,Pmmm,0,FALSE,bottom-up,638,,2dm-4377
2dm-2416,2,AuO,Pmc2_1,463,FALSE,bottom-up,69,,2dm-4904
2dm-2418,2,HgSe,P4/nmm,475,TRUE,bottom-up,228,,2dm-4928
2dm-2419,2,TaBr5,Pmma,79,FALSE,bottom-up,,,2dm-4011
2dm-242,2,AuI,P-6m2,43,TRUE,bottom-up,137,258,2dm-3405
2dm-2420,2,CdH,P6mm,0,FALSE,bottom-up,696,368,2dm-5122
2dm-2421,2,Hg3Bi,P6/mmm,0,FALSE,bottom-up,273,417,
2dm-2422,2,YTe,P4/nmm,0,FALSE,bottom-up,67,9,2dm-3456
2dm-2423,2,CrSi3,P6/mmm,0,FALSE,bottom-up,906,403,2dm-4700
2dm-2424,2,GaCl3,Pm,3267,TRUE,bottom-up,46,,2dm-4316
2dm-2425,2,PdF2,P-1,0,FALSE,bottom-up,204,,2dm-5213
2dm-2426,2,TiF4,P4/mmm,3038,FALSE,bottom-up,70,0,2dm-5172
2dm-2427,2,TiTe2,P4/mmm,0,FALSE,bottom-up,274,104,2dm-3183
2dm-2428,2,NCl3,P-6m2,0,FALSE,bottom-up,965,117,2dm-5268
2dm-2429,2,CdTe,P4/nmm,1304,TRUE,bottom-up,138,118,2dm-4928
2dm-243,2,Tl2Os,P4/mmm,0,FALSE,bottom-up,998,58,2dm-3244
2dm-2430,2,Tl2S3,P1,172,FALSE,bottom-up,160,,2dm-4098
2dm-2431,2,BiCl5,Pmma,289,FALSE,bottom-up,,96,2dm-5369
2dm-2432,2,Cu2Se,P6/mmm,0,FALSE,bottom-up,188,41,2dm-3422
2dm-2433,2,BaBr2,P-1,4763,FALSE,bottom-up,256,,2dm-4672
2dm-2434,2,NbBr5,Pmma,53,FALSE,bottom-up,,,2dm-4011
2dm-2435,2,NF3,P-6m2,332,TRUE,bottom-up,170,18,2dm-5268
2dm-2436,2,SrF2,P-1,5858,TRUE,bottom-up,392,230,2dm-4672
2dm-2437,2,SmTe,P4/nmm,0,FALSE,bottom-up,96,10,2dm-3735
2dm-2438,2,AsS,C2/m,0,FALSE,bottom-up,360,1,2dm-3899
2dm-2439,2,Pt3Se4,P2/m,0,FALSE,bottom-up,613,,2dm-3552
2dm-244,2,CuF,Cmme,1432,TRUE,bottom-up,192,119,2dm-4576
2dm-2440,2,HgS,P4/nmm,1063,TRUE,bottom-up,285,166,2dm-4928
2dm-2441,2,SrCl2,Pmma,3631,TRUE,bottom-up,228,170,2dm-5328
2dm-2442,2,Bi4C3,C2,0,FALSE,bottom-up,1395,104,2dm-5191
2dm-2443,2,ZrS2,P4/mmm,0,FALSE,bottom-up,430,223,2dm-3183
2dm-2444,2,CrGe3,P6/mmm,0,FALSE,bottom-up,783,534,2dm-4700
2dm-2445,2,CrO3,Pc,0,FALSE,bottom-up,163,-1,2dm-5061
2dm-2446,2,YO3,P-1,2300,TRUE,bottom-up,70,263,2dm-4488
2dm-2447,2,Si3Bi4,C2,0,FALSE,bottom-up,573,291,2dm-5191
2dm-2448,2,P2O3,P1,2083,FALSE,bottom-up,397,81,
2dm-2449,2,BaLi,P4/nmm,0,FALSE,bottom-up,231,219,2dm-3098
2dm-245,2,BiF3,Cmcm,3854,FALSE,bottom-up,75,151,2dm-5217
2dm-2450,2,V2F5,P1,933,FALSE,bottom-up,217,,2dm-5407
2dm-2451,2,AgHg3,P6/mmm,0,FALSE,bottom-up,276,384,2dm-4094
2dm-2452,2,TiP2,P-3m1,0,FALSE,bottom-up,803,299,2dm-3175
2dm-2453,2,In2Te3,Cm,93,FALSE,bottom-up,132,120,2dm-4098
2dm-2454,2,Bi2O3,Pmma,1032,FALSE,bottom-up,337,,2dm-5775
2dm-2455,2,NdTe3,P6/mmm,0,FALSE,bottom-up,598,496,2dm-4698
2dm-2456,2,HgS,P3m1,0,FALSE,bottom-up,135,,2dm-4937
2dm-2457,2,AgCl2,P-4m2,0,FALSE,bottom-up,56,102,2dm-4593
2dm-246,2,Si3Br8,P1,658,TRUE,bottom-up,306,,2dm-3403
2dm-2460,2,GeF4,P2_1/c,4454,TRUE,bottom-up,49,30,2dm-5245
2dm-2461,2,ScTe,P4/nmm,0,FALSE,bottom-up,74,9,2dm-3456
2dm-2462,2,BeCl2,C2,5614,FALSE,bottom-up,151,35,2dm-4513
2dm-2463,2,HfS2,P4/mmm,0,FALSE,bottom-up,511,168,2dm-3183
2dm-2464,2,P2O3,Pmmn,3610,FALSE,bottom-up,268,60,2dm-5601
2dm-2465,2,OsSe2,P-3m1,0,FALSE,bottom-up,297,,2dm-4510
2dm-2466,2,SmSe,P4/nmm,0,FALSE,bottom-up,168,9,2dm-3735
2dm-2467,2,PS,Pc,1157,FALSE,bottom-up,309,,2dm-4903
2dm-2468,2,PdSe2,P-6m2,0,FALSE,bottom-up,277,348,2dm-5509
2dm-2469,2,NbTe2,P6/mmm,0,FALSE,bottom-up,966,1014,
2dm-247,2,MgGe2,P-3m1,0,FALSE,bottom-up,396,347,2dm-5517
2dm-2470,2,InF3,P2/m,4564,FALSE,bottom-up,67,,2dm-4316
2dm-2471,2,SnCl4,P2/c,2407,TRUE,bottom-up,75,,2dm-5245
2dm-2472,2,SN,Aem2,0,FALSE,bottom-up,607,6,2dm-3899
2dm-2473,2,HgTe,P4/nmm,0,FALSE,bottom-up,200,169,2dm-4928
2dm-2474,2,InAs,P4/mbm,0,FALSE,bottom-up,592,,2dm-4491
2dm-2475,2,GaSb,P4/mbm,0,FALSE,bottom-up,605,2,2dm-4491
2dm-2476,2,VCl5,Pmma,99,FALSE,bottom-up,,,2dm-4011
2dm-2477,2,SbF3,P-6m2,1527,FALSE,bottom-up,554,512,2dm-5268
2dm-2478,2,CdS,P3m1,0,FALSE,bottom-up,196,,2dm-4937
2dm-2479,2,SrLi,P2_1/m,0,FALSE,bottom-up,305,295,2dm-3098
2dm-248,2,PtBr2,P2_1/c,1582,FALSE,bottom-up,16,116,2dm-5760
2dm-2480,2,K2Cl,P-3m1,0,FALSE,bottom-up,206,161,2dm-3804
2dm-2481,2,As2O3,P1,191,FALSE,bottom-up,186,13,2dm-4024
2dm-2482,2,C2O3,P2_1/m,2928,FALSE,bottom-up,877,,2dm-5342
2dm-2483,2,Be2Sb,P-4m2,0,FALSE,bottom-up,,785,2dm-4910
2dm-2484,2,Br4N,P1,220,FALSE,bottom-up,536,83,2dm-5151
2dm-2485,2,Ca2Bi,Pmm2,0,FALSE,bottom-up,,701,2dm-4910
2dm-2487,2,Al2Se3,P1,0,FALSE,bottom-up,187,157,2dm-4098
2dm-2488,2,AsCl3,P-6m2,1169,TRUE,bottom-up,421,-73,2dm-5268
2dm-2489,2,TiSe2,P4/mmm,0,FALSE,bottom-up,352,86,2dm-3183
2dm-249,2,Ba5Co,Pmc2_1,0,FALSE,bottom-up,430,268,2dm-5064
2dm-2490,2,CuSe2,Pmm2,0,FALSE,bottom-up,133,-111,2dm-4374
2dm-2491,2,AsF3,P-6m2,2009,FALSE,bottom-up,550,202,2dm-5268
2dm-2492,2,Ba2Sb,P-4m2,0,FALSE,bottom-up,,604,2dm-4910
2dm-2493,2,CaCl2,P-1,5620,FALSE,bottom-up,205,161,2dm-4672
2dm-2494,2,PBr5,Pmma,0,FALSE,bottom-up,,141,2dm-5369
2dm-2495,2,PSe,C2/m,0,FALSE,bottom-up,406,6,2dm-3899
2dm-2496,2,LuN2,C222,0,FALSE,bottom-up,2090,,2dm-3342
2dm-2497,2,BiI3,P-6m2,881,TRUE,bottom-up,354,127,2dm-5268
2dm-2498,2,CrAs,C2/m,0,FALSE,bottom-up,431,172,2dm-4660
2dm-2499,2,B2O3,P321,4480,FALSE,bottom-up,38,2,2dm-5264
2dm-25,2,VBr4,P4/mmm,0,FALSE,bottom-up,58,140,2dm-3290
2dm-250,2,AsCl3,P2_1/c,3749,FALSE,bottom-up,24,75,2dm-4881
2dm-2500,2,MoP,C2/m,0,FALSE,bottom-up,709,515,2dm-4660
2dm-2501,2,MoAs2,P-1,0,FALSE,bottom-up,574,,2dm-4068
2dm-2502,2,Sr2N,P-4m2,0,FALSE,bottom-up,,413,2dm-4910
2dm-2503,2,VF5,Pmmm,323,FALSE,bottom-up,510,48,2dm-5221
2dm-2504,2,Bi2O3,Pmmn,2422,FALSE,bottom-up,262,277,2dm-5601
2dm-2505,2,SrF2,Pmma,5334,TRUE,bottom-up,444,309,2dm-5328
2dm-2506,2,Be2As,P-4m2,0,FALSE,bottom-up,,743,2dm-4910
2dm-2507,2,SnC,P-6m2,946,FALSE,bottom-up,1323,,2dm-4906
2dm-2508,2,LiMg,P2_1/m,0,FALSE,bottom-up,356,347,2dm-3098
2dm-2509,2,ReO2,Pmmn,0,FALSE,bottom-up,583,,2dm-4274
2dm-251,2,Tb2Ge,P-3m1,0,FALSE,bottom-up,679,445,2dm-4563
2dm-2510,2,Hf2O7,P1,330,FALSE,bottom-up,189,,2dm-5108
2dm-2512,2,Ca2P,P-4m2,0,FALSE,bottom-up,,,2dm-4910
2dm-2513,2,AlBi,P2_1/m,0,FALSE,bottom-up,120,119,2dm-4209
2dm-2514,2,PdCl2,P-1,159,FALSE,bottom-up,256,66,2dm-5213
2dm-2515,2,CrN,I4/mmm,0,FALSE,bottom-up,290,74,2dm-4660
2dm-2516,2,AlCl3,Pmma,3312,TRUE,bottom-up,114,78,2dm-4316
2dm-2517,2,As2O3,Pmmn,3068,FALSE,bottom-up,203,118,2dm-5601
2dm-2518,2,Cd3Sb,P6/mmm,0,FALSE,bottom-up,312,323,
2dm-2519,2,SN,Pmc2_1,0,FALSE,bottom-up,150,,2dm-3526
2dm-252,2,HfSn2,Pmmn,0,FALSE,bottom-up,369,336,2dm-3413
2dm-2520,2,VCl4,P1,1,FALSE,bottom-up,56,,2dm-4341
2dm-2521,2,SnI2,P-6m2,1917,FALSE,bottom-up,56,166,2dm-3455
2dm-2523,2,PO2,P1,2595,FALSE,bottom-up,,8,2dm-5765
2dm-2524,2,In2S3,P1,189,FALSE,bottom-up,197,152,2dm-4098
2dm-2525,2,BiN,P1,1407,FALSE,bottom-up,436,,2dm-5216
2dm-2526,2,Nb2F5,P1,155,FALSE,bottom-up,445,,2dm-5407
2dm-2527,2,Ba2As,P-4m2,0,FALSE,bottom-up,,561,2dm-4910
2dm-2528,2,SrI2,P-1,4220,FALSE,bottom-up,198,151,2dm-4672
2dm-2529,2,SbTe,Pc,0,FALSE,bottom-up,1046,9,2dm-4903
2dm-253,2,CaF2,P-3m1,7162,FALSE,bottom-up,140,51,2dm-3820
2dm-2530,2,NO2,P1,0,FALSE,bottom-up,,,2dm-5161
2dm-2531,2,P2W,P-1,48,FALSE,bottom-up,673,,2dm-4068
2dm-2532,2,InTe,P3m1,0,FALSE,bottom-up,,332,2dm-3782
2dm-2533,2,As4Pb3,C2,0,FALSE,bottom-up,155,105,2dm-5191
2dm-2534,2,AuN6,Pmn2_1,0,FALSE,bottom-up,495,61,2dm-5628
2dm-2537,2,TlAs,P4/mbm,0,FALSE,bottom-up,587,12,2dm-4491
2dm-2538,2,BeBr2,Pmma,3301,TRUE,bottom-up,368,64,2dm-5328
2dm-2539,2,In2Se3,P1,295,FALSE,bottom-up,160,,2dm-4098
2dm-254,2,Te3N2,P2_1/m,0,FALSE,bottom-up,828,208,2dm-3583
2dm-2541,2,RuSe2,Pcca,0,FALSE,bottom-up,365,83,2dm-4350
2dm-2542,2,BiSe,Pmma,0,FALSE,bottom-up,200,28,2dm-3526
2dm-2543,2,K2F,P-3m1,0,FALSE,bottom-up,223,144,2dm-3804
2dm-2544,2,Br5N,Pmma,0,FALSE,bottom-up,,114,2dm-5369
2dm-2545,2,SbSe,Pmc2_1,0,FALSE,bottom-up,187,200,2dm-3526
2dm-2546,2,CdSe,P3m1,0,FALSE,bottom-up,178,,2dm-5442
2dm-2547,2,HfBr4,P4/mmm,1277,FALSE,bottom-up,0,0,2dm-5172
2dm-2548,2,B2O3,P-3m1,3905,FALSE,bottom-up,,13,2dm-3783
2dm-2549,2,N2O3,P1,0,FALSE,bottom-up,322,,
2dm-2550,2,Ca2N,P-4m2,0,FALSE,bottom-up,,,2dm-4910
2dm-2551,2,Al2Se3,P1,0,FALSE,bottom-up,381,,2dm-5396
2dm-2552,2,WO3,Pc,1756,TRUE,bottom-up,552,72,2dm-5061
2dm-2553,2,AsCl4,P1,1240,TRUE,bottom-up,37,65,2dm-5151
2dm-2554,2,Al2S3,P1,2128,FALSE,bottom-up,74,37,2dm-4098
2dm-2555,2,SeO3,P31m,1005,TRUE,bottom-up,517,,2dm-5855
2dm-2556,2,AuCl2,P-4m2,0,FALSE,bottom-up,284,105,2dm-4593
2dm-2557,2,AgN6,Pmn2_1,0,FALSE,bottom-up,421,63,2dm-5628
2dm-2558,2,Ge2O3,P2_1/m,3027,FALSE,bottom-up,116,101,2dm-5342
2dm-2559,2,ZnTe,P3m1,0,FALSE,bottom-up,70,,2dm-5442
2dm-256,2,Te3P2,P-3m1,328,FALSE,bottom-up,193,72,2dm-4453
2dm-2560,2,Mo3O8,P-1,1756,TRUE,bottom-up,58,48,2dm-5123
2dm-2561,2,Sn3N4,P3m1,395,TRUE,bottom-up,980,,2dm-4847
2dm-2562,2,CuN3,Pccm,221,FALSE,bottom-up,325,99,2dm-3449
2dm-2563,2,TiAs2,P-3m1,0,FALSE,bottom-up,565,266,2dm-3175
2dm-2564,2,WC3,P-6m2,0,FALSE,bottom-up,1904,340,2dm-4700
2dm-2565,2,NbBr4,Pmna,0,FALSE,bottom-up,110,,2dm-4341
2dm-2566,2,AlSb,P2_1/c,0,FALSE,bottom-up,651,,2dm-4209
2dm-2567,2,TlSe,P3m1,9,FALSE,bottom-up,,439,2dm-3782
2dm-2568,2,WN,C2/m,353,TRUE,bottom-up,121,,2dm-4660
2dm-2569,2,GaF3,Pmmm,5271,FALSE,bottom-up,56,58,2dm-4316
2dm-257,2,CeS3,P4/nmm,0,FALSE,bottom-up,0,43,2dm-5863
2dm-2570,2,CdS,P3m1,0,FALSE,bottom-up,201,,2dm-5442
2dm-2571,2,SrI2,Pmma,2195,TRUE,bottom-up,117,85,2dm-5328
2dm-2572,2,B2S3,P1,0,FALSE,bottom-up,389,,2dm-5396
2dm-2573,2,CdSe,P3m1,0,FALSE,bottom-up,176,,2dm-4937
2dm-2574,2,SiI4,P1,0,FALSE,bottom-up,453,471,2dm-5245
2dm-2575,2,PSe,Aem2,0,FALSE,bottom-up,333,0,2dm-4903
2dm-2576,2,Au2S,P6/mmm,0,FALSE,bottom-up,474,179,2dm-3422
2dm-2577,2,ThSn2,P4/mmm,0,FALSE,bottom-up,619,,2dm-3140
2dm-2578,2,SrBr2,P-1,4810,FALSE,bottom-up,226,163,2dm-4672
2dm-258,2,NbS2,C2/m,0,FALSE,bottom-up,38,,2dm-5694
2dm-2580,2,NaMg,P2_1/m,0,FALSE,bottom-up,350,269,2dm-3098
2dm-2581,2,Ga2S3,P1,32,FALSE,bottom-up,174,227,2dm-4098
2dm-2582,2,GaN,P4/mbm,2040,FALSE,bottom-up,550,0,2dm-4491
2dm-2583,2,Sr2Sb,Pmm2,0,FALSE,bottom-up,,683,2dm-4910
2dm-2584,2,NbF5,Pmmm,2215,FALSE,bottom-up,338,54,2dm-5221
2dm-2585,2,Ga2O3,Cm,2640,FALSE,bottom-up,228,-117,2dm-4743
2dm-2586,2,PtF2,P2_1/m,875,FALSE,bottom-up,98,61,2dm-5213
2dm-2587,2,PS,Pmc2_1,0,FALSE,bottom-up,291,142,2dm-3526
2dm-2588,2,TeN,Pmc2_1,0,FALSE,bottom-up,757,94,2dm-3526
2dm-2589,2,OsS2,P2/c,0,FALSE,bottom-up,520,81,2dm-4350
2dm-259,2,I3N,C2/m,1052,TRUE,bottom-up,797,122,2dm-3868
2dm-2590,2,AlN,P4/mbm,2813,FALSE,bottom-up,707,3,2dm-4491
2dm-2591,2,MgBr2,Pmma,3467,TRUE,bottom-up,120,68,2dm-5328
2dm-2592,2,P2O3,P1,1450,FALSE,bottom-up,388,,2dm-4024
2dm-2593,2,AsS,Pc,0,FALSE,bottom-up,242,201,2dm-4903
2dm-2594,2,CaF2,P-1,6262,TRUE,bottom-up,340,228,2dm-4672
2dm-2595,2,Ge3Ir,P-6m2,0,FALSE,bottom-up,977,660,2dm-4883
2dm-2596,2,Na2I,P-3m1,0,FALSE,bottom-up,321,201,2dm-3804
2dm-2597,2,GaP,P4/mbm,873,FALSE,bottom-up,611,2,2dm-4491
2dm-2598,2,BiB,P4/mbm,0,FALSE,bottom-up,1517,-5,2dm-4491
2dm-2599,2,NO2,P6/mmm,0,FALSE,bottom-up,,41,2dm-3826
2dm-26,2,AlSb3,P-3m1,389,TRUE,bottom-up,365,354,
2dm-260,2,TaSe2,P-1,0,FALSE,bottom-up,24,99,2dm-3033
2dm-2600,2,Ga2S3,P1,561,FALSE,bottom-up,330,,2dm-5396
2dm-2601,2,As2W,P-1,0,FALSE,bottom-up,458,,2dm-4068
2dm-2602,2,PS,C2/m,0,FALSE,bottom-up,518,2,2dm-3899
2dm-2603,2,GeBr4,P-1,0,FALSE,bottom-up,411,,2dm-5245
2dm-2604,2,BiO2,P6/mmm,353,FALSE,bottom-up,,,2dm-3826
2dm-2605,2,MgCl2,C2/m,4676,TRUE,bottom-up,102,,2dm-4513
2dm-2606,2,NbSe2,Pmmm,0,FALSE,bottom-up,650,,2dm-4377
2dm-2607,2,Zr2O7,P1,524,FALSE,bottom-up,185,146,2dm-5108
2dm-2608,2,KMg,P2_1/m,0,FALSE,bottom-up,533,326,2dm-3098
2dm-2609,2,GeSe,Pbcm,351,FALSE,bottom-up,65,105,2dm-4574
2dm-261,2,SnP,P-1,1432,FALSE,bottom-up,95,108,2dm-4588
2dm-2610,2,SbP,P1,542,FALSE,bottom-up,150,155,2dm-5216
2dm-2611,2,W4O9,Pc,1679,TRUE,bottom-up,519,,2dm-4685
2dm-2612,2,FeSe2,Pcca,0,FALSE,bottom-up,286,81,2dm-4350
2dm-2613,2,TeAs,P2/c,0,FALSE,bottom-up,189,8,2dm-4903
2dm-2614,2,ZrS,P4/nmm,0,FALSE,bottom-up,461,,2dm-3004
2dm-2615,2,RuS2,Pcca,0,FALSE,bottom-up,523,81,2dm-4350
2dm-2616,2,B2Te3,P1,0,FALSE,bottom-up,457,19,2dm-5066
2dm-2617,2,CrS,P4/nmm,0,FALSE,bottom-up,116,77,2dm-4959
2dm-2618,2,SrCl2,P-1,5451,FALSE,bottom-up,256,179,2dm-4672
2dm-2619,2,V2O5,Pm,1509,FALSE,bottom-up,222,,2dm-4242
2dm-262,2,OsI2,P-3m1,1265,TRUE,bottom-up,390,86,2dm-3574
2dm-2620,2,WS,P4/nmm,0,FALSE,bottom-up,578,95,2dm-4959
2dm-2621,2,InBi,P4/mbm,0,FALSE,bottom-up,555,,2dm-4491
2dm-2622,2,Cr3O8,Cm,1522,FALSE,bottom-up,152,,2dm-4463
2dm-2623,2,AlSe,P3m1,486,FALSE,bottom-up,,311,2dm-3782
2dm-2624,2,AsBr3,P2_1/c,2860,FALSE,bottom-up,12,83,2dm-5329
2dm-2625,2,SbS,Pmc2_1,0,FALSE,bottom-up,232,185,2dm-3526
2dm-2626,2,TlN,P4/mbm,0,FALSE,bottom-up,1107,8,2dm-4491
2dm-2627,2,Rb2Cl,P-3m1,0,FALSE,bottom-up,183,140,2dm-3804
2dm-2628,2,CrPb3,P6/mmm,0,FALSE,bottom-up,887,,2dm-4700
2dm-2629,2,MgI2,Pmma,2650,FALSE,bottom-up,93,77,2dm-5328
2dm-263,2,BiCl3,P-31m,3418,FALSE,bottom-up,0,72,2dm-5507
2dm-2630,2,TaCl4,P1,1113,FALSE,bottom-up,102,,2dm-4341
2dm-2631,2,InSb,P4/mbm,0,FALSE,bottom-up,578,2,2dm-4491
2dm-2632,2,ZrSe2,P4/mmm,0,FALSE,bottom-up,341,155,2dm-3183
2dm-2633,2,Mn2I7,P2/c,0,FALSE,bottom-up,107,,2dm-4014
2dm-2634,2,PF3,P2_1/c,5670,TRUE,bottom-up,0,,2dm-5329
2dm-2635,2,AsF3,P2_1/c,5241,TRUE,bottom-up,40,59,2dm-5329
2dm-2636,2,Sn3I8,P1,345,FALSE,bottom-up,107,,2dm-3403
2dm-2637,2,B2S3,P1,1128,FALSE,bottom-up,353,0,2dm-5066
2dm-2638,2,B2Se3,P1,540,FALSE,bottom-up,172,13,2dm-5066
2dm-2639,2,NbCl4,P1,0,FALSE,bottom-up,165,,2dm-4341
2dm-264,2,Y5Br8,P2/m,0,FALSE,bottom-up,34,90,2dm-4448
2dm-2640,2,As6Au,Pmn2_1,0,FALSE,bottom-up,335,,2dm-5628
2dm-2641,2,SbI3,Pc,1817,FALSE,bottom-up,81,132,2dm-3709
2dm-2642,2,CrSn3,P6/mmm,0,FALSE,bottom-up,768,602,2dm-4700
2dm-2643,2,AgP6,Pmn2_1,0,FALSE,bottom-up,449,,2dm-5628
2dm-2644,2,CdTe,P3m1,0,FALSE,bottom-up,157,,2dm-4937
2dm-2645,2,SbS,Pc,0,FALSE,bottom-up,241,164,2dm-4903
2dm-2646,2,TeN,Pc,103,TRUE,bottom-up,784,114,2dm-4903
2dm-2647,2,SbF3,P2_1/c,3933,TRUE,bottom-up,70,89,2dm-5329
2dm-2649,2,In2S3,P1,758,FALSE,bottom-up,298,7,2dm-5396
2dm-265,2,CaBr2,P-4m2,4849,FALSE,bottom-up,164,133,2dm-4009
2dm-2650,2,TlBi,P4/mbm,0,FALSE,bottom-up,565,,2dm-4491
2dm-2651,2,PdBr2,P-1,94,FALSE,bottom-up,222,72,2dm-5213
2dm-2652,2,P6Au,Pmn2_1,0,FALSE,bottom-up,448,,2dm-5628