material_id,nelements,Formula,Spacegroup,Bandgap (meV),Is gap direct?,Discovery process,Decomposition energy (meV/atom),Exfoliation energy (meV/atom),Obtained from
2dm-2653,2,PbBr4,P2/c,0,FALSE,bottom-up,81,,2dm-5245
2dm-2654,2,MoC3,P-6m2,0,FALSE,bottom-up,1763,324,2dm-4700
2dm-2655,2,Al2Te3,P1,0,FALSE,bottom-up,234,,2dm-5066
2dm-2656,2,NiBr2,P-1,0,FALSE,bottom-up,265,67,2dm-5213
2dm-2657,2,VI5,Pmma,0,FALSE,bottom-up,,,2dm-4011
2dm-2658,2,Ga2Se3,P1,287,TRUE,bottom-up,283,17,2dm-5396
2dm-2659,2,Be2N,P4/mmm,0,FALSE,bottom-up,,,2dm-4910
2dm-266,2,CuCl,Cmme,2601,TRUE,bottom-up,0,68,2dm-4576
2dm-2660,2,Os3S4,P2_1/m,0,FALSE,bottom-up,415,37,2dm-4921
2dm-2661,2,Mo4O9,P1,1478,FALSE,bottom-up,314,,2dm-4685
2dm-2662,2,MgF2,C2/m,6374,TRUE,bottom-up,159,,2dm-4513
2dm-2663,2,VSe2,Pmmm,0,FALSE,bottom-up,513,0,2dm-4377
2dm-2664,2,Ni3Te4,P2/m,0,FALSE,bottom-up,198,,2dm-3552
2dm-2665,2,SN,Pc,0,FALSE,bottom-up,609,458,2dm-4903
2dm-2666,2,CaBr2,C2,3610,FALSE,bottom-up,107,,2dm-4513
2dm-2667,2,P2O3,Pmma,1,FALSE,bottom-up,637,41,2dm-5775
2dm-2668,2,RbMg,Pmmn,0,FALSE,bottom-up,584,370,2dm-3098
2dm-2669,2,Te4Ru3,P2_1/m,0,FALSE,bottom-up,191,,2dm-4921
2dm-267,2,AgF,Cmme,1524,TRUE,bottom-up,138,,2dm-3495
2dm-2670,2,TaI4,Pc,0,FALSE,bottom-up,102,,2dm-4341
2dm-2671,2,Ta2F5,P1,333,FALSE,bottom-up,591,101,2dm-5407
2dm-2672,2,TlP,P4/mbm,0,FALSE,bottom-up,702,0,2dm-4491
2dm-2673,2,Pb3F8,P1,2375,FALSE,bottom-up,121,196,2dm-3403
2dm-2674,2,AuN3,Pccm,749,TRUE,bottom-up,632,139,2dm-3449
2dm-2675,2,CaBr2,P-1,4893,FALSE,bottom-up,182,145,2dm-4672
2dm-2676,2,Pd3Se4,P2/m,0,FALSE,bottom-up,303,90,2dm-3552
2dm-2677,2,In2S3,P1,109,TRUE,bottom-up,298,,2dm-5066
2dm-2678,2,AuF2,P-4m2,0,FALSE,bottom-up,499,510,2dm-4593
2dm-2679,2,NbCl5,Pmma,0,FALSE,bottom-up,452,,2dm-4011
2dm-268,2,Sb2O3,P2_1,3083,FALSE,bottom-up,37,,2dm-3771
2dm-2680,2,AsSe,P2/c,0,FALSE,bottom-up,204,208,2dm-4903
2dm-2681,2,ZnTe,P3m1,0,FALSE,bottom-up,71,-59,2dm-4937
2dm-2682,2,AsBr3,P-6m2,773,TRUE,bottom-up,365,-80,2dm-5268
2dm-2683,2,Sn3Ir,P-6m2,0,FALSE,bottom-up,819,529,2dm-4883
2dm-2684,2,V2Br5,Cm,0,FALSE,bottom-up,94,33,2dm-5407
2dm-2685,2,B2Se3,P1,0,FALSE,bottom-up,103,,2dm-5396
2dm-2686,2,SiC,P-6m2,2490,FALSE,bottom-up,504,,2dm-4906
2dm-2687,2,HfN2,P-3m1,0,FALSE,bottom-up,1181,110,2dm-3175
2dm-2688,2,HfTe2,P4/mmm,0,FALSE,bottom-up,294,110,2dm-3183
2dm-2689,2,PI3,P-6m2,100,TRUE,bottom-up,412,-57,2dm-5268
2dm-269,2,USe3,P4/nmm,0,FALSE,bottom-up,57,54,2dm-5579
2dm-2690,2,BeCl2,Pmma,4409,TRUE,bottom-up,381,58,2dm-5328
2dm-2691,2,FeTe2,P-3m1,0,FALSE,bottom-up,139,67,2dm-4510
2dm-2692,2,CoSi3,P-6m2,0,FALSE,bottom-up,1299,715,2dm-4883
2dm-2693,2,AgF2,P-4m2,0,FALSE,bottom-up,79,146,2dm-4593
2dm-2694,2,TeW,P4/nmm,0,FALSE,bottom-up,340,91,2dm-4959
2dm-2695,2,BeI2,Pmma,2057,FALSE,bottom-up,0,74,2dm-5328
2dm-2696,2,Sn3Rh,P-6m2,0,FALSE,bottom-up,792,580,2dm-4883
2dm-2697,2,Rb2Br,P-3m1,0,FALSE,bottom-up,180,142,2dm-3804
2dm-2698,2,BiW,P4/nmm,0,FALSE,bottom-up,423,,2dm-4660
2dm-2699,2,In2Se3,P1,408,FALSE,bottom-up,261,,2dm-5396
2dm-27,2,Al4O3,P2_1/m,0,FALSE,bottom-up,445,248,2dm-3496
2dm-270,2,Se3N2,Pmn2_1,1408,TRUE,bottom-up,593,83,2dm-4821
2dm-2700,2,SbMo,C2/m,0,FALSE,bottom-up,127,-160,2dm-4660
2dm-2701,2,MgF2,Pmma,5927,TRUE,bottom-up,372,68,2dm-5328
2dm-2703,2,CrC3,P-6m2,0,FALSE,bottom-up,1602,,2dm-4700
2dm-2704,2,PBr5,Pmmm,0,FALSE,bottom-up,380,204,2dm-4722
2dm-2705,2,ZrI4,P4/mmm,303,FALSE,bottom-up,179,0,2dm-5172
2dm-2706,2,AsW,C2/m,15,FALSE,bottom-up,415,317,2dm-4660
2dm-2708,2,Zn3Cu,P6/mmm,0,FALSE,bottom-up,423,494,2dm-4094
2dm-2709,2,B2Se3,P1,0,FALSE,bottom-up,60,64,2dm-4098
2dm-271,2,Nb2Se3,C2/m,364,FALSE,bottom-up,37,80,2dm-4351
2dm-2710,2,AsBr5,Pmmm,0,FALSE,bottom-up,307,221,2dm-4722
2dm-2711,2,Os3Se4,P-3m1,0,FALSE,bottom-up,445,,
2dm-2712,2,Ru3Se4,P-3m1,0,FALSE,bottom-up,267,,
2dm-2713,2,HfAs2,P-3m1,0,FALSE,bottom-up,602,183,2dm-3175
2dm-2714,2,GeI4,P2/c,0,FALSE,bottom-up,175,,2dm-5245
2dm-2715,2,TlF3,P1,2656,FALSE,bottom-up,27,,2dm-4316
2dm-2716,2,WCl5,Pmmm,0,FALSE,bottom-up,,,2dm-4702
2dm-2717,2,PF5,Pmmm,0,FALSE,bottom-up,991,63,2dm-4722
2dm-2718,2,BiO2,P3m1,147,FALSE,bottom-up,,332,
2dm-2719,2,CoSn3,P-6m2,0,FALSE,bottom-up,664,385,2dm-4883
2dm-272,2,SnAs2,Pmc2_1,772,FALSE,bottom-up,29,,2dm-4912
2dm-2720,2,SnI4,Pban,0,FALSE,bottom-up,162,92,2dm-5245
2dm-2721,2,B13N2,P-3m1,0,FALSE,bottom-up,558,23,2dm-3089
2dm-2722,2,TiSb2,P-3m1,0,FALSE,bottom-up,541,358,2dm-3175
2dm-2723,2,W3O8,P-3m1,2572,FALSE,bottom-up,231,,2dm-4472
2dm-2724,2,MoI5,Pm,0,FALSE,bottom-up,,,2dm-4702
2dm-2725,2,Ga13N2,P-3m1,0,FALSE,bottom-up,394,,2dm-3089
2dm-2726,2,CaF2,C2/m,6982,FALSE,bottom-up,62,,2dm-4513
2dm-2727,2,TlN,P2_1/c,1012,FALSE,bottom-up,1086,,2dm-4209
2dm-2728,2,SbBr3,P-6m2,907,TRUE,bottom-up,304,107,2dm-5268
2dm-2729,2,Be2P,P-4m2,0,FALSE,bottom-up,,,2dm-4910
2dm-273,2,HfCl2,P-3m1,0,FALSE,bottom-up,131,26,2dm-3733
2dm-2730,2,Ge3Rh,P-6m2,0,FALSE,bottom-up,985,732,2dm-4883
2dm-2731,2,NF5,Pmmm,0,FALSE,bottom-up,62,75,2dm-4722
2dm-2732,2,HfBi2,P-3m1,0,FALSE,bottom-up,0,135,2dm-3175
2dm-2733,2,WBr5,Pmmm,0,FALSE,bottom-up,,,2dm-4702
2dm-2735,2,TaBr5,Pmmm,0,FALSE,bottom-up,293,92,2dm-5221
2dm-2736,2,SrF2,C2/m,6605,FALSE,bottom-up,68,,2dm-4513
2dm-2737,2,Ta2O3,Fmm2,0,FALSE,bottom-up,999,631,
2dm-2738,2,Ta4O9,P4/n,393,FALSE,bottom-up,411,,2dm-5303
2dm-2739,2,AsCl5,Pmmm,0,FALSE,bottom-up,290,235,2dm-4722
2dm-274,2,TaTe3,P2_1/m,0,FALSE,bottom-up,37,76,2dm-4111
2dm-2740,2,Mg2N,P-4m2,0,FALSE,bottom-up,,,2dm-4910
2dm-2741,2,CrBr5,P2/m,0,FALSE,bottom-up,,,2dm-4702
2dm-2742,2,AsI5,Pmmm,0,FALSE,bottom-up,334,261,2dm-4722
2dm-2743,2,GaI3,P2/m,1387,TRUE,bottom-up,47,,2dm-4316
2dm-2744,2,Br3N,P1,958,FALSE,bottom-up,708,-534,2dm-5268
2dm-2745,2,SbBr5,P2/m,17,TRUE,bottom-up,273,163,2dm-4722
2dm-2746,2,PO2,P3m1,0,FALSE,bottom-up,666,27,
2dm-2747,2,In2O3,P321,1625,TRUE,bottom-up,230,,2dm-5264
2dm-2748,2,TeMo,P4/nmm,0,FALSE,bottom-up,235,89,2dm-4959
2dm-2749,2,BaI2,Pmma,1940,TRUE,bottom-up,154,94,2dm-5328
2dm-275,2,P2Se3,P2_1/m,240,FALSE,bottom-up,92,69,2dm-3583
2dm-2750,2,CrF5,P2/m,0,FALSE,bottom-up,,13,2dm-4702
2dm-2751,2,Te4Os3,P-3m1,0,FALSE,bottom-up,397,,
2dm-2752,2,CoPb3,P-6m2,0,FALSE,bottom-up,738,377,2dm-4883
2dm-2753,2,AuO2,Pmmm,0,FALSE,bottom-up,486,,2dm-4494
2dm-2754,2,NbBr5,Pmmm,0,FALSE,bottom-up,255,,2dm-5221
2dm-2756,2,InN,P2_1/c,644,FALSE,bottom-up,571,,2dm-4209
2dm-2757,2,Zn3Ag,P6/mmm,0,FALSE,bottom-up,349,446,2dm-4094
2dm-2758,2,InBr3,P1,1560,FALSE,bottom-up,95,,2dm-4316
2dm-2759,2,RbBe,P2_1/m,0,FALSE,bottom-up,1689,897,2dm-3098
2dm-276,2,SiP,P-1,1859,FALSE,bottom-up,3,66,2dm-4588
2dm-2760,2,ZrO2,P-3m1,4123,FALSE,bottom-up,233,,2dm-3816
2dm-2761,2,Zn3N,P6/mmm,0,FALSE,bottom-up,811,203,
2dm-2762,2,Te2Os,P-3m1,0,FALSE,bottom-up,315,,2dm-4510
2dm-2763,2,Nb2O3,C2,234,FALSE,bottom-up,832,,
2dm-2764,2,ZrO2,P2_1/m,4103,FALSE,bottom-up,234,,2dm-4378
2dm-2765,2,I5N,P2/m,0,FALSE,bottom-up,764,134,2dm-4722
2dm-2766,2,NO2,P-1,2307,FALSE,bottom-up,,,2dm-5160
2dm-2767,2,NO2,P1,0,FALSE,bottom-up,,-707,
2dm-2768,2,ZrBi2,P-3m1,0,FALSE,bottom-up,119,80,2dm-3175
2dm-2769,2,La5F8,P2/m,0,FALSE,bottom-up,294,,2dm-4448
2dm-277,2,Sn2O3,P2_1/c,2856,FALSE,bottom-up,133,107,2dm-3613
2dm-2770,2,CuF2,P-4m2,195,FALSE,bottom-up,103,,2dm-4593
2dm-2771,2,CrBi,C2/m,0,FALSE,bottom-up,689,114,2dm-4660
2dm-2772,2,SrBr2,C2,4213,TRUE,bottom-up,120,,2dm-4513
2dm-2773,2,PbI4,Pban,0,FALSE,bottom-up,94,,2dm-5245
2dm-2774,2,InCl3,Pm,2498,TRUE,bottom-up,0,,2dm-4316
2dm-2775,2,TaI5,Pmmm,0,FALSE,bottom-up,185,,2dm-5221
2dm-2776,2,Zn3Sb,P6/mmm,0,FALSE,bottom-up,395,437,
2dm-2777,2,CrI5,P2/c,0,FALSE,bottom-up,,,2dm-5476
2dm-2778,2,SrI2,C2/m,2882,FALSE,bottom-up,98,,2dm-4513
2dm-2779,2,RhC3,P-6m2,0,FALSE,bottom-up,3378,1405,2dm-4883
2dm-278,2,PtI2,P-3m1,0,FALSE,bottom-up,278,133,2dm-3741
2dm-2780,2,HfSb2,P-3m1,0,FALSE,bottom-up,253,66,2dm-3175
2dm-2781,2,Mo3O8,P-3m1,1540,FALSE,bottom-up,113,,2dm-4472
2dm-2782,2,B13As2,P-3m1,0,FALSE,bottom-up,859,30,2dm-3089
2dm-2784,2,VCl5,Pmmm,0,FALSE,bottom-up,251,86,2dm-5221
2dm-2785,2,IrC3,P-6m2,0,FALSE,bottom-up,3175,1202,2dm-4883
2dm-2786,2,P4C3,C2,0,FALSE,bottom-up,803,-48,2dm-5191
2dm-2787,2,YbF3,P-1,7,TRUE,bottom-up,166,318,
2dm-2788,2,Os3S4,P-3m1,0,FALSE,bottom-up,444,,
2dm-2789,2,SbW,C2/m,0,FALSE,bottom-up,301,88,2dm-4660
2dm-279,2,SiS,Pmn2_1,1364,FALSE,bottom-up,466,128,2dm-4478
2dm-2790,2,VTe2,P6/mmm,0,FALSE,bottom-up,867,703,
2dm-2791,2,TlBr3,P1,926,FALSE,bottom-up,78,,2dm-4316
2dm-2792,2,VSe2,P6/mmm,0,FALSE,bottom-up,1102,866,
2dm-2793,2,ZrO,P4/nmm,0,FALSE,bottom-up,166,,2dm-4970
2dm-2794,2,BiMo,C2/m,0,FALSE,bottom-up,233,-315,2dm-4660
2dm-2795,2,AgO2,Pmmm,0,FALSE,bottom-up,376,330,2dm-4494
2dm-2796,2,CO2,C2,5516,FALSE,bottom-up,373,,2dm-3879
2dm-2797,2,MgI2,C2,2853,FALSE,bottom-up,149,,2dm-4513
2dm-2798,2,AsF5,Pmmm,0,FALSE,bottom-up,627,,2dm-4722
2dm-2799,2,CrBi2,P-1,0,FALSE,bottom-up,392,,2dm-4068
2dm-28,2,Mo3S4,P-3m1,0,FALSE,bottom-up,292,35,2dm-4728
2dm-280,2,SnS,P3m1,2312,FALSE,bottom-up,122,224,2dm-3977
2dm-2800,2,Ge3N4,P-6m2,883,FALSE,bottom-up,1257,,2dm-4847
2dm-2801,2,SO3,P31m,1426,TRUE,bottom-up,854,,2dm-5855
2dm-2802,2,Br3N,P2_1/c,1362,FALSE,bottom-up,604,100,2dm-5329
2dm-2803,2,GeC,P-6m2,2128,TRUE,bottom-up,852,,2dm-4906
2dm-2804,2,Zn3As,P6/mmm,0,FALSE,bottom-up,372,371,
2dm-2805,2,B2O3,Cm,4186,FALSE,bottom-up,98,-509,2dm-4743
2dm-2806,2,Si3N4,C2/m,0,FALSE,bottom-up,1117,93,2dm-5191
2dm-2807,2,IrPb3,P-6m2,0,FALSE,bottom-up,764,568,2dm-4883
2dm-2808,2,HoN2,C222,0,FALSE,bottom-up,2023,1199,2dm-3946
2dm-2809,2,CoGe3,P-6m2,0,FALSE,bottom-up,854,529,2dm-4883
2dm-281,2,TePd,P4/nmm,0,FALSE,bottom-up,242,236,2dm-5133
2dm-2810,2,Ge3N4,C2/m,1015,FALSE,bottom-up,514,22,2dm-5191
2dm-2811,2,Tl2O3,P321,257,TRUE,bottom-up,171,,2dm-5264
2dm-2812,2,PW,C2/m,0,FALSE,bottom-up,467,413,2dm-4660
2dm-2813,2,YbI3,P-3,0,FALSE,bottom-up,233,99,
2dm-2814,2,NO2,P-1,2330,FALSE,bottom-up,,,2dm-5398
2dm-2815,2,Ru3S4,P-3m1,0,FALSE,bottom-up,262,33,
2dm-2816,2,TaCl5,Pmmm,0,FALSE,bottom-up,522,,2dm-5221
2dm-2817,2,Pb3N4,C2,0,FALSE,bottom-up,215,57,2dm-5191
2dm-2818,2,ZrP2,P-3m1,0,FALSE,bottom-up,875,206,2dm-3175
2dm-2819,2,CdTe,P3m1,0,FALSE,bottom-up,159,,2dm-5442
2dm-282,2,AgSe,Pmmn,0,FALSE,bottom-up,137,103,2dm-3486
2dm-2820,2,BiCl5,Pmmm,0,FALSE,bottom-up,112,,2dm-4722
2dm-2821,2,Ga2O3,P-3m1,3118,FALSE,bottom-up,,25,2dm-3783
2dm-2822,2,CrF5,Pmm2,0,FALSE,bottom-up,455,,2dm-5476
2dm-2823,2,NiC4,P1,0,FALSE,bottom-up,263,,2dm-3525
2dm-2824,2,Cd3N,P6/mmm,0,FALSE,bottom-up,998,669,
2dm-2825,2,WI5,Pmmm,0,FALSE,bottom-up,85,,2dm-4702
2dm-2826,2,ZrO2,Pmm2,2969,TRUE,bottom-up,562,,2dm-4454
2dm-2827,2,TaCo3,P6/mmm,0,FALSE,bottom-up,1299,519,
2dm-2828,2,MoI5,P2/c,0,FALSE,bottom-up,1,,2dm-5476
2dm-2829,2,PBr3,P2_1/c,2942,FALSE,bottom-up,31,83,2dm-5329
2dm-283,2,OsF2,P-3m1,864,FALSE,bottom-up,1198,71,2dm-3574
2dm-2830,2,TaRh3,P6/mmm,0,FALSE,bottom-up,1348,,
2dm-2831,2,Ga2O3,P321,2686,FALSE,bottom-up,170,107,2dm-5264
2dm-2832,2,WI5,Pmma,0,FALSE,bottom-up,,,2dm-5476
2dm-2833,2,Tl2Te3,P1,270,FALSE,bottom-up,96,,2dm-5066
2dm-2834,2,CF2,P-6m2,2548,FALSE,bottom-up,2346,183,2dm-3455
2dm-2835,2,BrN4,P2/m,0,FALSE,bottom-up,12,,2dm-5639
2dm-2836,2,Au18S11,P1,0,FALSE,bottom-up,191,25,
2dm-2837,2,CrCl5,P2/m,0,FALSE,bottom-up,,89,2dm-5476
2dm-2838,2,Tl2Se3,P1,0,FALSE,bottom-up,121,,2dm-5396
2dm-2839,2,Al2Se3,P1,834,FALSE,bottom-up,173,44,2dm-5066
2dm-284,2,HPb,P-3m1,0,TRUE,bottom-up,394,70,2dm-4712
2dm-2840,2,Ga2Se3,P1,922,FALSE,bottom-up,266,,2dm-5066
2dm-2841,2,BiB,P1,0,FALSE,bottom-up,1092,,2dm-4209
2dm-2842,2,NCl5,P1,0,FALSE,bottom-up,54,-252,2dm-4722
2dm-2843,2,Al13N2,C2/m,0,FALSE,bottom-up,584,,2dm-3089
2dm-2844,2,P4C3,P-6m2,0,FALSE,bottom-up,698,,2dm-4847
2dm-2845,2,Ga2S3,P1,838,TRUE,bottom-up,302,89,2dm-5066
2dm-2846,2,O2F,P2_1/c,1378,FALSE,bottom-up,0,,2dm-5766
2dm-2847,2,TlSb,P4/mbm,0,FALSE,bottom-up,567,,2dm-4491
2dm-2848,2,BiTe,Pmc2_1,0,FALSE,bottom-up,184,36,2dm-3526
2dm-2849,2,VIr3,P6/mmm,0,FALSE,bottom-up,1274,,
2dm-285,2,Sb2Pd,P-3m1,0,FALSE,bottom-up,206,242,2dm-5830
2dm-2850,2,N2O3,P1,0,FALSE,bottom-up,315,,2dm-4024
2dm-2851,2,BiBr5,Pmma,0,FALSE,bottom-up,,265,2dm-5369
2dm-2852,2,BiO2,P1,0,FALSE,bottom-up,152,44,2dm-5765
2dm-2853,2,MoBr5,Pmm2,0,FALSE,bottom-up,,,2dm-5476
2dm-2854,2,AsO2,P-3m1,0,FALSE,bottom-up,435,40,2dm-5161
2dm-2855,2,TlI3,P-1,857,FALSE,bottom-up,139,,2dm-4316
2dm-2856,2,Al2Te3,P1,0,FALSE,bottom-up,298,20,2dm-5396
2dm-2857,2,In2Te3,P1,326,FALSE,bottom-up,191,,2dm-5066
2dm-2858,2,SeN,Pmc2_1,12,FALSE,bottom-up,827,,2dm-3526
2dm-2859,2,WO2,P1,1407,FALSE,bottom-up,389,,2dm-5925
2dm-286,2,WI2,P-3m1,0,FALSE,bottom-up,628,93,2dm-4519
2dm-2860,2,In2Se3,P1,326,FALSE,bottom-up,250,,2dm-5066
2dm-2861,2,TaIr3,P6/mmm,0,FALSE,bottom-up,1450,,
2dm-2862,2,SrCl2,C2/m,4367,FALSE,bottom-up,145,,2dm-4513
2dm-2863,2,TlBi,P-1,0,FALSE,bottom-up,117,,2dm-4209
2dm-2864,2,Te4Ru3,P-3m1,0,FALSE,bottom-up,248,,
2dm-2865,2,Zn3P,P6/mmm,0,FALSE,bottom-up,433,212,
2dm-2866,2,BeF2,C2/m,8282,FALSE,bottom-up,90,37,2dm-4672
2dm-2867,2,MoCl5,Pmmm,0,FALSE,bottom-up,392,209,2dm-4702
2dm-2868,2,SnF2,P-6m2,2375,FALSE,bottom-up,327,353,2dm-3455
2dm-2869,2,Sb2Mo,C2/m,0,FALSE,bottom-up,120,,2dm-4068
2dm-287,2,Tb2Si,P-3m1,0,FALSE,bottom-up,651,423,2dm-4563
2dm-2870,2,Zn3Bi,P6/mmm,0,FALSE,bottom-up,446,382,
2dm-2871,2,CrI5,Cmmm,0,FALSE,bottom-up,118,,2dm-4702
2dm-2872,2,WBr5,Pmma,1,TRUE,bottom-up,404,,2dm-5476
2dm-2873,2,CS,P2/c,790,FALSE,bottom-up,480,,2dm-4574
2dm-2875,2,PI5,Cmmm,0,FALSE,bottom-up,288,235,2dm-4722
2dm-2876,2,Li2F,P-3m1,0,FALSE,bottom-up,362,275,2dm-3804
2dm-2877,2,CrBr5,P2/c,0,FALSE,bottom-up,168,,2dm-5476
2dm-2878,2,PbC,P3m1,0,FALSE,bottom-up,1912,,2dm-4906
2dm-288,2,HgBr2,C2,2086,TRUE,bottom-up,28,91,2dm-5027
2dm-2880,2,Nb4O9,P4/n,0,FALSE,bottom-up,274,,2dm-5303
2dm-2881,2,Bi2W,P-1,0,FALSE,bottom-up,495,,2dm-4068
2dm-2882,2,BaF2,C2/m,6147,FALSE,bottom-up,132,,2dm-4513
2dm-2883,2,CrSb,P-1,0,FALSE,bottom-up,,280,2dm-4660
2dm-2884,2,MgF2,C2/m,6524,FALSE,bottom-up,251,199,2dm-4672
2dm-2885,2,Bi2Mo,P-1,0,FALSE,bottom-up,346,,2dm-4068
2dm-2886,2,PCl5,Pmmm,0,FALSE,bottom-up,438,117,2dm-4722
2dm-2887,2,Br5N,P2,0,FALSE,bottom-up,710,-83,2dm-4722
2dm-2888,2,As4C3,P-6m2,110,FALSE,bottom-up,1101,,2dm-4745
2dm-2889,2,NbI5,Pmmm,0,FALSE,bottom-up,151,,2dm-5221
2dm-289,2,AlS,P-6m2,2033,FALSE,bottom-up,6,55,2dm-3099
2dm-2890,2,MgBr2,C2,3756,TRUE,bottom-up,90,,2dm-4513
2dm-2891,2,VI5,Pmmm,0,FALSE,bottom-up,55,,2dm-5221
2dm-2892,2,SeN,Pc,22,FALSE,bottom-up,688,,2dm-4903
2dm-2893,2,HgTe,P3m1,0,FALSE,bottom-up,128,,2dm-4937
2dm-2894,2,C3N4,P1,0,FALSE,bottom-up,1108,,2dm-5191
2dm-2895,2,MoO2,P1,594,FALSE,bottom-up,334,,2dm-5925
2dm-2896,2,CrCl5,Pm,138,FALSE,bottom-up,0,-13,2dm-4702
2dm-2897,2,MoBr5,Pmmm,0,FALSE,bottom-up,96,,2dm-4702
2dm-2898,2,Ga2Te3,P1,204,FALSE,bottom-up,204,,2dm-5396
2dm-2899,2,VBr5,Pmmm,0,FALSE,bottom-up,264,,2dm-5221
2dm-29,2,SBr,P-1,1802,FALSE,bottom-up,35,67,2dm-4682
2dm-290,2,CaCl2,P-3m1,5729,FALSE,bottom-up,14,66,2dm-3820
2dm-2900,2,InI3,P1,579,FALSE,bottom-up,98,,2dm-4316
2dm-2901,2,B2Te3,P1,0,FALSE,bottom-up,386,21,2dm-5396
2dm-2902,2,AlAs,P1,0,FALSE,bottom-up,805,,2dm-4209
2dm-2903,2,N2O3,Pmma,0,FALSE,bottom-up,1189,40,2dm-5775
2dm-2904,2,WCl5,Pmma,0,FALSE,bottom-up,321,,2dm-5476
2dm-2905,2,Sb2W,P-1,45,FALSE,bottom-up,428,,2dm-4068
2dm-2906,2,CI2,P-6m2,128,FALSE,bottom-up,1759,320,2dm-3455
2dm-2907,2,KBa,P2_1/m,0,FALSE,bottom-up,347,274,2dm-3098
2dm-2908,2,Al13Sb2,P1,0,FALSE,bottom-up,351,,2dm-3089
2dm-2909,2,PbO2,C2,905,FALSE,bottom-up,282,,2dm-3879
2dm-291,2,GaCl,P4mm,1729,FALSE,bottom-up,,514,2dm-3775
2dm-2910,2,NbTe2,Pmmm,0,FALSE,bottom-up,507,,2dm-4377
2dm-2911,2,SnO2,C2,1923,TRUE,bottom-up,466,220,2dm-3879
2dm-2912,2,BeBr2,C2,4632,FALSE,bottom-up,149,37,2dm-4513
2dm-2913,2,TlCl3,Pm,1493,FALSE,bottom-up,0,,2dm-4316
2dm-2915,2,BiBr5,Pmmm,0,FALSE,bottom-up,323,143,2dm-4722
2dm-2916,2,WF2,Pbam,607,TRUE,bottom-up,962,,2dm-4169
2dm-2917,2,Tl2Te3,P1,48,FALSE,bottom-up,118,,2dm-5396
2dm-2918,2,Ga2Te3,P1,365,FALSE,bottom-up,204,,2dm-5066
2dm-2919,2,HgSe,P3m1,0,FALSE,bottom-up,130,,2dm-5442
2dm-292,2,Sc2Br5,P2_1/m,220,FALSE,bottom-up,0,72,2dm-5545
2dm-2920,2,GaN5,Pc,644,FALSE,bottom-up,1083,71,2dm-3922
2dm-2921,2,AsO2,P2_1/m,1872,FALSE,bottom-up,,51,2dm-5160
2dm-2922,2,HgTe,P3m1,0,FALSE,bottom-up,116,,2dm-5442
2dm-2923,2,Tl2S3,P1,27,FALSE,bottom-up,171,,2dm-5396
2dm-2924,2,AgBi3,Pccm,0,FALSE,bottom-up,1156,,2dm-3449
2dm-2925,2,TiBi2,P-3m1,0,FALSE,bottom-up,131,155,2dm-3175
2dm-2926,2,NO2,P1,0,FALSE,bottom-up,156,,2dm-5765
2dm-2927,2,GaBr3,Pm,2330,TRUE,bottom-up,46,,2dm-4316
2dm-2928,2,In2Te3,P1,0,FALSE,bottom-up,186,,2dm-5396
2dm-2929,2,Sn3Bi4,P3m1,1394,TRUE,bottom-up,600,,2dm-4847
2dm-293,2,PBr3,Pmn2_1,2985,FALSE,bottom-up,30,91,2dm-3709
2dm-2930,2,As4C3,P1,969,FALSE,bottom-up,1154,,2dm-4847
2dm-2931,2,Tl2Se3,P1,326,FALSE,bottom-up,89,,2dm-5066
2dm-2932,2,Si3Sb4,P1,702,FALSE,bottom-up,308,,2dm-4745
2dm-2933,2,GaAs,P-1,36,FALSE,bottom-up,2118,,2dm-4209
2dm-2934,2,VRh3,P3m1,0,FALSE,bottom-up,943,,
2dm-2935,2,Re2I7,P1,0,FALSE,bottom-up,254,,2dm-5376
2dm-2936,2,Tl2S3,P1,586,FALSE,bottom-up,192,,2dm-5066
2dm-2937,2,Tc2I7,P2_1,0,FALSE,bottom-up,7,,2dm-5376
2dm-2938,2,BaCl2,C2,4017,FALSE,bottom-up,202,,2dm-4513
2dm-2939,2,GaBi,P-1,945,FALSE,bottom-up,771,,2dm-4209
2dm-294,2,CrCl4,P2/m,0,FALSE,bottom-up,6,-98,2dm-4502
2dm-2941,2,InS,P-6m2,328,TRUE,bottom-up,365,102,2dm-3781
2dm-2942,2,AlBr,P4/nmm,2109,FALSE,bottom-up,606,86,2dm-3772
2dm-2943,2,Ga2O3,P-3m1,2476,FALSE,bottom-up,160,2,2dm-3783
2dm-2944,2,Be2Bi,Pmmn,0,FALSE,bottom-up,1239,,2dm-4910
2dm-2945,2,Ca2Sb,Pmmn,0,FALSE,bottom-up,466,230,2dm-4910
2dm-2946,2,Sr2Sb,Pmmn,0,FALSE,bottom-up,377,198,2dm-4910
2dm-2947,2,Be2Sb,Pmmn,0,FALSE,bottom-up,977,475,2dm-4910
2dm-2948,2,GaTe,P-6m2,231,TRUE,bottom-up,368,,2dm-3781
2dm-2949,2,B2O3,P-3m1,3441,FALSE,bottom-up,916,0,2dm-3783
2dm-2950,2,In2O3,P-3m1,1274,FALSE,bottom-up,184,1,2dm-3783
2dm-2951,2,TlTe,P-6m2,484,TRUE,bottom-up,119,91,2dm-3781
2dm-2952,2,InTe,P-6m2,248,TRUE,bottom-up,243,110,2dm-3781
2dm-2953,2,Ba2Sb,Pmmn,0,FALSE,bottom-up,289,148,2dm-4910
2dm-2954,2,BCl,P4/nmm,2800,FALSE,bottom-up,1758,60,2dm-3772
2dm-2955,2,Sr2As,Pmmn,0,FALSE,bottom-up,253,,2dm-4910
2dm-2956,2,BTe,P-6m2,0,FALSE,bottom-up,1109,,2dm-3781
2dm-2957,2,AlTe,P-6m2,323,FALSE,bottom-up,553,,2dm-3781
2dm-2958,2,Mg2Bi,Pmmn,0,FALSE,bottom-up,417,272,2dm-4910
2dm-2959,2,AlF,P4/nmm,1350,FALSE,bottom-up,959,304,2dm-3772
2dm-296,2,As2Pb,Pmc2_1,386,FALSE,bottom-up,184,108,2dm-4912
2dm-2960,2,Ba2As,Pmmn,0,FALSE,bottom-up,182,137,2dm-4910
2dm-2961,2,Sr2P,Pmmn,0,FALSE,bottom-up,200,,2dm-4910
2dm-2962,2,TlSe,P-6m2,542,TRUE,bottom-up,62,70,2dm-3781
2dm-2963,2,TlS,P-6m2,1082,TRUE,bottom-up,73,63,2dm-3781
2dm-2964,2,Mg2P,Pmmn,0,FALSE,bottom-up,485,,2dm-4910
2dm-2965,2,Ca2As,Pmmn,0,FALSE,bottom-up,342,204,2dm-4910
2dm-2966,2,Ca2N,Pmmn,0,FALSE,bottom-up,181,,2dm-4910
2dm-2967,2,BSe,P-6m2,0,FALSE,bottom-up,826,103,2dm-3781
2dm-2968,2,GaS,P-6m2,871,TRUE,bottom-up,520,,2dm-3781
2dm-2969,2,Mg2N,Pmmn,0,FALSE,bottom-up,333,,2dm-4910
2dm-297,2,ZrF2,P-3m1,0,FALSE,bottom-up,326,50,2dm-3607
2dm-2970,2,Ba2N,Pmmn,0,FALSE,bottom-up,137,,2dm-4910
2dm-2971,2,InSe,P-6m2,643,TRUE,bottom-up,331,,2dm-3781
2dm-2972,2,Be2P,Pmmn,0,FALSE,bottom-up,691,,2dm-4910
2dm-2973,2,AlCl,P4/nmm,2432,FALSE,bottom-up,695,81,2dm-3772
2dm-2974,2,AlSe,P-6m2,311,FALSE,bottom-up,603,249,2dm-3781
2dm-2975,2,AlS,P-6m2,104,FALSE,bottom-up,678,330,2dm-3781
2dm-2976,2,Al2O3,P-3m1,4621,FALSE,bottom-up,191,1,2dm-3783
2dm-2977,2,BS,P-6m2,0,FALSE,bottom-up,885,101,2dm-3781
2dm-2978,2,Be2As,Pmmn,0,FALSE,bottom-up,681,474,2dm-4910
2dm-2979,2,BBr,P4/nmm,2535,FALSE,bottom-up,1776,76,2dm-3772
2dm-298,2,BSe,P-6m2,2576,FALSE,bottom-up,0,47,2dm-3099
2dm-2980,2,Mg2Sb,Pmmn,0,FALSE,bottom-up,432,289,2dm-4910
2dm-2981,2,BI,P4/nmm,407,FALSE,bottom-up,1612,114,2dm-3772
2dm-2982,2,Sr2N,Pmmn,0,FALSE,bottom-up,161,124,2dm-4910
2dm-2983,2,Be2N,Pmmn,0,FALSE,bottom-up,719,,2dm-4910
2dm-2984,2,BF,P4/nmm,3939,FALSE,bottom-up,1545,,2dm-3772
2dm-2985,2,Ca2P,Pmmn,0,FALSE,bottom-up,74,,2dm-4910
2dm-2986,2,Ba2Bi,Pmmn,0,FALSE,bottom-up,311,156,2dm-4910
2dm-2987,2,Ca2Bi,Pmmn,0,FALSE,bottom-up,486,228,2dm-4910
2dm-2988,2,Ba2P,Pmmn,0,FALSE,bottom-up,144,133,2dm-4910