22,nelements,Formula,Spacegroup,Bandgap (meV),Is gap direct?,Discovery process,Decomposition energy (meV/atom),Exfoliation energy (meV/atom),Obtained from
2dm-3027,4,RbMg6BO7,P4mm,0,FALSE,top-down,656,22,mp-1033689
2dm-3030,4,CdPb2(ClO)2,C2/m,3700,FALSE,top-down,0,88,mp-1077904
2dm-3034,4,HfTaNO3,Pmm2,2116,TRUE,top-down,207,147,mp-1018719
2dm-3044,4,CaFeSO,P3m1,0,FALSE,top-down,399,295,mp-1078415
2dm-3047,4,TiZn(BiO3)2,Cm,0,FALSE,top-down,257,267,mp-1084840
2dm-3091,4,RbHfMg6O7,P4mm,0,FALSE,top-down,396,,mp-1098247
2dm-3097,4,YZnPO,P-3m1,1589,TRUE,top-down,56,120,mp-12509
2dm-3109,4,LaBiSe2O,P4/nmm,839,TRUE,top-down,32,63,mp-1078431
2dm-3163,4,YbCuPbSe3,Pmma,0,FALSE,top-down,176,176,mp-1095661
2dm-3174,4,HfMg6BO7,P4mm,0,FALSE,top-down,669,102,mp-1033263
2dm-3177,4,LaBiS2O,P4/nmm,912,TRUE,top-down,27,63,mp-1078397
2dm-3190,4,CuPb2(ClO2)2,P4mm,0,FALSE,top-down,355,203,mp-1079292
2dm-3193,4,RbLiMg6O7,P4mm,0,FALSE,top-down,434,20,mp-1031127
2dm-3235,4,NaTi2HO5,Pm,0,FALSE,top-down,128,25,mp-1079509
2dm-3261,4,SrFe2Se2O,Pmmn,1199,TRUE,top-down,232,337,mp-1095252
2dm-3307,4,NaB(SO4)2,P2/c,6007,TRUE,top-down,7,55,mp-1020658
2dm-3317,4,KUClO3,P2_1/m,1882,FALSE,top-down,35,54,mp-1095429
2dm-3324,4,CaC2(SN)2,P2/c,3882,FALSE,top-down,78,75,mp-11009
2dm-3336,4,SrFe2S2O,Pmmn,686,TRUE,top-down,305,381,mp-1095280
2dm-3340,4,NaEr(SO4)2,P2_1/m,5148,TRUE,top-down,56,91,mp-10476
2dm-3349,4,KRbMg6O7,P4mm,0,FALSE,top-down,,29,mp-1031389
2dm-3376,4,SrBiS2F,P4/nmm,879,TRUE,top-down,24,63,mp-1078631
2dm-3384,4,RbHfMg6O7,P4mm,0,FALSE,top-down,263,16,mp-1033679
2dm-3389,4,Sr2Co(BrO)2,P4/mmm,0,FALSE,top-down,93,59,mp-24866
2dm-3392,4,RbHfMg6O7,P4mm,0,FALSE,top-down,418,25,mp-1033722
2dm-3395,4,RbNaMg6O7,P4mm,0,FALSE,top-down,446,20,mp-1030980
2dm-3429,4,Sr2Cu(ClO)2,P4/mmm,0,FALSE,top-down,3,74,mp-23102
2dm-3440,4,P2H4PbO4,P4/nbm,4021,TRUE,top-down,46,25,mp-24298
2dm-3450,4,KRbMg6O7,P4mm,0,FALSE,top-down,639,16,mp-1031661
2dm-3492,4,Ag2IOF,P2_1,886,FALSE,top-down,256,98,mp-1079461
2dm-3504,4,Na2ZnCl4O3,P31m,651,FALSE,top-down,725,419,mp-1078510
2dm-3534,4,Sr3Co2Cl2O5,P4/mmm,0,FALSE,top-down,53,8,mp-24846
2dm-3546,4,TlRe3(Se2Cl)2,P-1,1462,FALSE,top-down,15,,mp-23144
2dm-3570,4,CaH4SO6,P2/c,4266,TRUE,top-down,55,62,mp-23690
2dm-3576,4,K2Hg3(GeS4)2,P2,1889,FALSE,top-down,101,,mp-11131
2dm-3579,4,CaMg(SiO3)2,P2_1/c,3916,FALSE,top-down,116,94,mp-1019580
2dm-3580,4,CuHOF,P2_1/c,214,FALSE,top-down,102,140,mp-24242
2dm-3598,4,InAg(PSe3)2,P312,913,FALSE,top-down,0,77,mp-20902
2dm-3601,4,TlIn(PSe3)2,P-1,1610,FALSE,top-down,2,92,mp-19985
2dm-3602,4,InAg(PS3)2,P312,1393,FALSE,top-down,0,69,mp-22661
2dm-3614,4,Sr3Fe2Cl2O5,P4/mmm,871,FALSE,top-down,17,43,mp-24935
2dm-3630,4,Ca2Cu(ClO)2,P4/mmm,0,FALSE,top-down,20,63,mp-23143
2dm-3641,4,CaAsH5O6,Pc,3936,TRUE,top-down,65,70,mp-24120
2dm-3643,4,Sr3Fe2Br2O5,P4/mmm,911,FALSE,top-down,9,28,mp-24936
2dm-3649,4,CaH4SeO6,P2/c,3944,TRUE,top-down,37,63,mp-24534
2dm-3666,4,MnTeMoO6,P2_12_12,2189,FALSE,top-down,18,50,mp-19090
2dm-3677,4,CaPH3O4,P2_1/c,4611,TRUE,top-down,33,58,mp-24170
2dm-3683,4,Ca3Cu2(ClO2)2,P4/mmm,0,FALSE,top-down,7,41,mp-23095
2dm-3689,4,InCu(PSe3)2,P312,550,TRUE,top-down,18,74,mp-22449
2dm-3701,4,LiCu(PO3)2,P2/c,2423,TRUE,top-down,92,102,mp-25975
2dm-3708,4,CuH2(SeO3)2,P2_1/c,72,TRUE,top-down,25,,mp-24164
2dm-3711,4,CuHgSCl,Pmc2_1,675,FALSE,top-down,58,102,mp-23567
2dm-3752,4,ZrP2(HO3)2,P-3m1,4134,TRUE,top-down,0,48,mp-24030
2dm-3777,4,Sr4Mn3(ClO4)2,P4/mmm,0,FALSE,top-down,0,26,mp-25033
2dm-3789,4,ZnH2SeO4,Pc,4467,FALSE,top-down,23,32,mp-24591
2dm-3800,4,CdP2(HO)4,P2/c,4554,FALSE,top-down,81,27,mp-24316
2dm-3806,4,FeMoClO4,P4/nmm,2202,TRUE,top-down,22,106,mp-24968
2dm-3808,4,CaP2(HO)4,P2/c,5508,FALSE,top-down,14,28,mp-24130
2dm-3813,4,FeSn2(CN)6,P-3,3640,FALSE,top-down,129,92,mp-21231
2dm-3814,4,LiV(OF)2,P1,3303,FALSE,top-down,195,208,mp-766149
2dm-3815,4,BaTl(SnO3)2,P4mm,0,FALSE,top-down,710,285,mvc-10741
2dm-3822,4,ZnTeMoO6,P2_12_12,3111,FALSE,top-down,19,47,mp-567019
2dm-3825,4,LiCuCO3,P1,2086,FALSE,top-down,95,113,mp-760512
2dm-3830,4,Ca3Cu2(BrO2)2,P4/mmm,0,FALSE,top-down,0,26,mp-545706
2dm-3832,4,DyZnPO,P-3m1,1508,TRUE,top-down,50,121,mp-549728
2dm-3833,4,Tl2Sn(AsS3)2,P-3,1651,FALSE,top-down,9,93,mp-6023
2dm-3844,4,LiCuCO3,P-1,2096,FALSE,top-down,81,54,mp-760512
2dm-3855,4,ZnTeMoO6,P2,3046,TRUE,top-down,145,236,mp-567019
2dm-3867,4,LiV(OF)2,P2_1/m,2970,FALSE,top-down,89,57,mp-766149
2dm-3870,4,BaTl(CoO3)2,P4mm,0,FALSE,top-down,580,,mvc-353
2dm-3875,4,Rb2Sn(H2N)6,P-3,2564,TRUE,top-down,17,36,mp-643359
2dm-3878,4,KH2I3O,Pc,1943,FALSE,top-down,38,75,mp-696649
2dm-3882,4,NiC2(SN)2,C2/m,285,FALSE,top-down,240,50,mp-8129
2dm-3884,4,SnPHO4,Pc,3645,TRUE,top-down,47,90,mp-690702
2dm-3886,4,BiTeIO3,P2_1/c,2401,FALSE,top-down,12,50,mp-559332
2dm-3892,4,Sr2MnClO3,P4/nmm,0,FALSE,top-down,1,33,mp-561903
2dm-3903,4,BaCuReO5,P4mm,0,FALSE,top-down,421,,mvc-7248
2dm-3904,4,LiCuCO3,Pmma,2455,FALSE,top-down,55,,mp-753425
2dm-3907,4,ZrH3NF4,P-1,5040,FALSE,top-down,0,45,mp-24508
2dm-3908,4,NaH4IO2,P-1,3892,FALSE,top-down,44,57,mp-696512
2dm-3911,4,BaCuSbO5,P4mm,0,FALSE,top-down,344,,mvc-7253
2dm-3925,4,AgHgSBr,Pmma,1235,FALSE,top-down,27,117,mp-560067
2dm-3933,4,NaAu(SO4)2,P-1,1836,FALSE,top-down,49,171,mp-561190
2dm-3936,4,CdP2H6O7,P-1,4481,FALSE,top-down,70,93,mp-24407
2dm-3938,4,BaCuWO5,P4mm,0,FALSE,top-down,446,,mvc-7747
2dm-3949,4,Nb2VZn2O8,P2/c,931,FALSE,top-down,103,122,mvc-423
2dm-3953,4,Nb2Te4Cl10O,P-1,1257,TRUE,top-down,15,,mp-555641
2dm-3955,4,CdBiS2Cl,Pmc2_1,1181,TRUE,top-down,143,254,mp-558849
2dm-3956,4,InSb2Se4Br,P2_1/m,1177,FALSE,top-down,15,,mp-570321
2dm-3959,4,AuCClO,Pmmn,2504,FALSE,top-down,162,31,mp-561703
2dm-3961,4,Y7C3I6O,Pmma,0,FALSE,top-down,0,31,mp-554027
2dm-3962,4,CrCu(PS3)2,P2_1,1012,FALSE,top-down,0,,mp-572465
2dm-3964,4,BaTl(SnO3)2,Pmmn,0,FALSE,top-down,476,8,mvc-10741
2dm-3972,4,NbTlBr4O,Pmm2,1207,FALSE,top-down,0,83,mp-551826
2dm-3973,4,InSb2S4Cl,P2_1/m,1462,FALSE,top-down,18,,mp-556541
2dm-3975,4,FeWClO4,P4/nmm,2481,TRUE,top-down,84,112,mp-565201
2dm-3984,4,HgINO3,Pmc2_1,2406,TRUE,top-down,0,53,mp-557250
2dm-3990,4,TiV2CrO10,P-4m2,1458,TRUE,top-down,101,77,mp-773510
2dm-4010,4,KCrClO3,P2_1/c,2773,FALSE,top-down,97,47,mp-25497
2dm-4012,4,CdHClO,P3m1,2571,TRUE,top-down,57,130,mp-644222
2dm-4016,4,Sr2CrCu2O7,Pmc2_1,0,FALSE,top-down,217,26,mvc-845
2dm-4030,4,CaP(H2O3)2,P-1,138,FALSE,top-down,106,60,mp-632758
2dm-4033,4,Sr3Co2S2O5,P4/mmm,0,FALSE,top-down,463,56,mvc-3221
2dm-4035,4,Zn2SeCl2O3,P2_1/c,4102,TRUE,top-down,6,42,mp-561112
2dm-4042,4,Sb2P3(HO3)3,P-1,3750,FALSE,top-down,93,91,mp-696655
2dm-4044,4,CuHgSBr,Pmc2_1,549,FALSE,top-down,71,99,mp-554879
2dm-4051,4,Mg3P2(HO)16,P2/m,3755,FALSE,top-down,51,60,mp-24638
2dm-4053,4,Nb2TlPS10,Pc,1349,FALSE,top-down,9,91,mp-560847
2dm-4054,4,BiPPbO5,P-1,3552,FALSE,top-down,86,,mp-556878
2dm-4055,4,HoTe2ClO5,P2/c,2893,TRUE,top-down,0,34,mp-558875
2dm-4060,4,CaP2H6O7,P-1,4949,FALSE,top-down,61,89,mp-24452
2dm-4061,4,Mg3Si4(HO6)2,P-1,5382,TRUE,top-down,0,20,mp-696497
2dm-4074,4,IClOF,P2_1/c,1977,FALSE,top-down,9,,mp-558330
2dm-4077,4,Sr2Cu2NiO7,Pmc2_1,0,FALSE,top-down,146,25,mvc-908
2dm-4078,4,SrCuBiO4,P4/mmm,0,FALSE,top-down,192,,mvc-11183
2dm-4080,4,CuCClO,Pmn2_1,2483,FALSE,top-down,117,37,mp-562090
2dm-4082,4,LiH2NO3,Pc,2744,FALSE,top-down,71,59,mp-722902
2dm-4087,4,InTeO3F,P2_1/c,3507,TRUE,top-down,0,54,mp-510727
2dm-4090,4,Sr2CoSO3,P4/nmm,0,FALSE,top-down,335,51,mvc-3228
2dm-4101,4,K2U3(IO5)4,P-1,1822,FALSE,top-down,49,126,mp-556374
2dm-4104,4,LaPb6BrO7,Pmma,2161,FALSE,top-down,0,55,mp-560665
2dm-4110,4,BaYSn4O7,P3m1,0,FALSE,top-down,213,47,mvc-1155
2dm-4112,4,KH(CN2)3,P-1,57,FALSE,top-down,715,,mp-696886
2dm-4120,4,Li4Co(PO4)2,P-1,3027,FALSE,top-down,116,101,mp-761656
2dm-4125,4,KB(CO2)4,Pmma,2924,TRUE,top-down,82,77,mp-559030
2dm-4130,4,Na2H6PtO6,P-3,3041,TRUE,top-down,23,70,mp-632760
2dm-4133,4,LiAg(CO2)2,P2_1,3059,FALSE,top-down,197,,mp-985571
2dm-4135,4,Ta2TiZn2O8,P-1,607,FALSE,top-down,189,,mvc-2345
2dm-4141,4,BaAlSn4O7,P3m1,0,FALSE,top-down,329,,mvc-1162
2dm-4144,4,Li2P4WO13,P-1,3085,TRUE,top-down,53,,mp-762217
2dm-4145,4,SmH2ClO2,P2_1/m,4464,TRUE,top-down,23,105,mp-757145
2dm-4146,4,LiCoPO4,P-3,2973,FALSE,top-down,69,41,mp-761828
2dm-4147,4,Ba2Tl2CuO6,Pmna,0,FALSE,top-down,448,513,mp-6027
2dm-4150,4,TlRe6Se8Cl3,P-1,1399,FALSE,top-down,3,,mp-23635
2dm-4153,4,ZnCu(SiO3)2,P2/c,147,TRUE,top-down,212,201,mvc-4985
2dm-4159,4,LiFeP2O7,P-1,2529,FALSE,top-down,144,134,mp-762843
2dm-4160,4,Li2V(PO4)2,P-3,0,FALSE,top-down,440,432,mp-763559
2dm-4162,4,BaTl(CoO3)2,Pm,0,FALSE,top-down,582,,mvc-353
2dm-4165,4,Li2Cr3(CO3)6,P-1,0,FALSE,top-down,71,,mp-763398
2dm-4167,4,LiRe(OF2)2,P-42_1m,3097,FALSE,top-down,0,27,mp-554108
2dm-4168,4,CdSbS2Cl,Pmc2_1,1256,TRUE,top-down,111,214,mp-557049
2dm-4170,4,InCu(MoO4)2,P2/c,1161,FALSE,top-down,65,108,mp-618075
2dm-4175,4,LiMnPO4,P2_1/m,3210,TRUE,top-down,123,115,mp-859134
2dm-4177,4,CeBiS2O,P4/nmm,0,FALSE,top-down,62,71,mp-610469
2dm-4186,4,Li2VO2F,Pmma,601,FALSE,top-down,185,209,mp-763347
2dm-4189,4,SnHC2O3,C2/m,2596,TRUE,top-down,230,49,mp-697873
2dm-4194,4,CuBi(PSe3)2,P3,1276,FALSE,top-down,0,,mp-683998
2dm-4195,4,K2PAuS4,P2_1/m,1041,FALSE,top-down,162,,mp-9509
2dm-4196,4,V2Te2O7F2,P-1,2490,FALSE,top-down,83,135,mp-566762
2dm-4201,4,TaNi2TeSe,Pmma,0,FALSE,top-down,0,51,mp-622009
2dm-4204,4,SrH2(SeO3)2,P-1,4166,TRUE,top-down,36,68,mp-753175
2dm-4205,4,Y2Mn2S2O5,P4/mmm,2,FALSE,top-down,381,,mp-656880
2dm-4206,4,SrP2(H2O3)2,P-1,5205,FALSE,top-down,29,54,mp-765294
2dm-4208,4,Bi4Te2Br2O9,P4mm,1164,TRUE,top-down,169,38,mp-557322
2dm-4214,4,BaSbSe2F,P-1,1323,FALSE,top-down,12,48,mp-558946
2dm-4221,4,KRe2O4F7,P2,3155,FALSE,top-down,0,38,mp-555490
2dm-4227,4,Li2Fe(PO4)2,P-3,0,FALSE,top-down,510,487,mp-762553
2dm-4228,4,TeMoCl7O,P2_1/c,2477,FALSE,top-down,21,,mp-617022
2dm-4229,4,RbReSO3,P2_1/c,2750,TRUE,top-down,87,60,mp-559212
2dm-4230,4,InH5(NF)2,P2_1/c,3865,TRUE,top-down,0,,mp-733932
2dm-4231,4,CdSb2Se3Br2,P2_1/m,1188,FALSE,top-down,24,129,mp-567556
2dm-4249,4,BaP2(HO)4,P4/nbm,5243,FALSE,top-down,0,26,mp-642646
2dm-4258,4,MnBiSe2I,P2/m,1,FALSE,top-down,135,234,mp-569109
2dm-4259,4,CoSb2Br2O3,P-1,2359,FALSE,top-down,0,50,mp-561493
2dm-4260,4,Li2Mn(PO4)2,P-1,1361,FALSE,top-down,130,116,mp-765793
2dm-4262,4,Ba2Tl2CuO6,P4/mmm,0,FALSE,top-down,448,508,mp-550722
2dm-4266,4,Li8Cr3TeO12,P2,740,FALSE,top-down,172,,mp-767678
2dm-4267,4,AgCSN,Pmn2_1,2726,TRUE,top-down,186,146,mp-562550
2dm-4271,4,Li4Ni(PO3)6,P1,3083,FALSE,top-down,97,99,mp-861126
2dm-4283,4,K2Ca(NO2)4,C2/m,2407,TRUE,top-down,232,40,mp-557597
2dm-4287,4,HgC2(SN)2,C2/m,2504,FALSE,top-down,232,,mp-655275
2dm-4290,4,AgCNO,P2_1/m,3202,FALSE,top-down,181,111,mp-6781
2dm-4295,4,Tl2Pt(CN)4,P2_1/c,2943,FALSE,top-down,98,94,mp-621092
2dm-4300,4,LiCu(PO3)3,P-1,401,FALSE,top-down,71,79,mp-758797
2dm-4302,4,SrH9ClO5,P-1,4773,FALSE,top-down,44,51,mp-541339
2dm-4304,4,CdSbS2Br,P2/m,1136,FALSE,top-down,113,207,mp-559588
2dm-4312,4,CaGe2WO6,P2/c,2292,FALSE,top-down,98,38,mvc-8404
2dm-4314,4,Cu3Te2(BrO3)2,C2/m,0,FALSE,top-down,17,41,mp-572313
2dm-4315,4,CaBiClO2,P2_1/m,3197,FALSE,top-down,54,235,mp-553025
2dm-4319,4,LiTeHO4,Pm,2018,FALSE,top-down,133,,mp-756477
2dm-4326,4,CuH6BrN2,P2/c,2159,TRUE,top-down,22,,mp-866097
2dm-4332,4,VPbClO3,P2_1/m,2421,FALSE,top-down,34,124,mp-566304
2dm-4340,4,Hg3AsS4Br,P3m1,2076,TRUE,top-down,19,144,mp-555074
2dm-4346,4,Sr2GaNi2O7,Pm,0,FALSE,top-down,272,-1,mvc-890
2dm-4360,4,LiMn7O7F,P3m1,0,FALSE,top-down,304,,mp-764671
2dm-4383,4,Sr2Cu(BrO)2,P4/mmm,0,FALSE,top-down,0,48,mp-546898
2dm-4386,4,ZnGe2WO6,P2/c,2409,FALSE,top-down,155,43,mvc-8429
2dm-4391,4,VINCl3,P-1,1065,FALSE,top-down,151,,mp-570829
2dm-4394,4,LiP(HO)2,Cmme,5411,TRUE,top-down,15,26,mp-642650
2dm-4401,4,NaB(CO2)4,Pmma,2926,TRUE,top-down,93,75,mp-559618
2dm-4403,4,CaP2(H2O3)3,P-1,4559,FALSE,top-down,45,59,mp-706278
2dm-4409,4,La2Si(IO2)2,P2_1/c,3092,TRUE,top-down,27,29,mp-559088
2dm-4411,4,FeP3(H2O3)3,Pc,2935,FALSE,top-down,100,67,mp-746690
2dm-4418,4,BaH9IO5,P-1,3911,FALSE,top-down,33,50,mp-766855
2dm-4432,4,Ta2MnZn2O8,P2/c,2697,FALSE,top-down,91,120,mp-31903
2dm-4440,4,MgNiP2O7,P-1,3478,FALSE,top-down,121,167,mvc-5642
2dm-4446,4,Ta4Co2PdSe12,C2/m,6,FALSE,top-down,71,,mp-505133
2dm-4457,4,LaP3H8O7,P-1,4974,FALSE,top-down,48,44,mp-697701
2dm-4466,4,TlV3(SeO6)2,P3,2356,FALSE,top-down,,82,mp-645272
2dm-4470,4,LiMnPO4,Pmma,2800,TRUE,top-down,298,333,mp-765871
2dm-4479,4,Sr2Co(ClO)2,P4/mmm,225,FALSE,top-down,23,,mp-560610
2dm-4481,4,W3Se2ClO8,Pm,0,FALSE,top-down,630,38,mvc-1626
2dm-4485,4,Sn2SbS2I3,Pmmn,1164,TRUE,top-down,105,107,mp-561134
2dm-4490,4,Li2V3(CO3)6,P-1,663,FALSE,top-down,71,,mp-763569
2dm-4496,4,Ba2Tl2W3O10,P2,0,FALSE,top-down,390,-17,mvc-3144
2dm-4499,4,RbCrClO3,P2_1/c,2794,FALSE,top-down,91,54,mp-566299
2dm-4501,4,TiSn(PO4)2,P2_1/m,2250,FALSE,top-down,84,50,mp-760599
2dm-4506,4,Li2Nb(PO4)2,P-3,0,FALSE,top-down,349,299,mp-760377
2dm-4514,4,Al2SnCl6O,P-1,3948,FALSE,top-down,0,,mp-560633
2dm-4515,4,FeTe(PO4)2,Pm,918,TRUE,top-down,173,,mp-849683
2dm-4521,4,Cu2BiAsO6,Pmn2_1,68,FALSE,top-down,186,,mp-669361
2dm-4528,4,TlW2(Cl3O)2,P2/m,0,FALSE,top-down,61,87,mp-866385
2dm-4530,4,GdZnPO,P-3m1,640,TRUE,top-down,27,124,mp-545506
2dm-4531,4,NdZnPO,P-3m1,1729,FALSE,top-down,4,,mp-9518
2dm-4533,4,CoTeMoO6,P2_12_12,2436,FALSE,top-down,15,49,mp-560750
2dm-4534,4,Sr3Fe2S2O5,P4/mmm,0,FALSE,top-down,241,-276,mvc-3224
2dm-4535,4,Li3V(OF)2,P2/c,254,TRUE,top-down,191,,mp-765547
2dm-4536,4,Cu2As4S3Cl2,Pm,1162,TRUE,top-down,61,123,mp-560845
2dm-4541,4,LiV(OF)2,Pca2_1,2558,TRUE,top-down,86,71,mp-765790
2dm-4544,4,Ba3In2Br2O5,P4/mmm,1544,FALSE,top-down,14,42,mp-556004
2dm-4552,4,GaAg(PSe3)2,P312,972,FALSE,top-down,17,73,mp-7008
2dm-4557,4,CaHClO,P3m1,3642,TRUE,top-down,46,162,mp-642725
2dm-4560,4,KH4O2F,Pmc2_1,4942,FALSE,top-down,55,74,mp-983327
2dm-4561,4,Sr2Cu(BiO3)2,Pmna,0,FALSE,top-down,70,37,mp-555827
2dm-4562,4,LiFe2C2O7,P1,2476,FALSE,top-down,90,82,mp-762511
2dm-4573,4,LiVOF3,P2_1/c,2138,TRUE,top-down,60,47,mp-764842
2dm-4586,4,CoH6(SeO4)2,P2_1/c,2957,FALSE,top-down,53,84,mp-744574
2dm-4591,4,CdTeMoO6,P-42_1m,3234,FALSE,top-down,0,53,mp-565932
2dm-4596,4,MnNb2Zn2O8,P2/c,2453,FALSE,top-down,102,123,mp-620294
2dm-4597,4,Rb2Hg2PdCl8,C2/m,1556,TRUE,top-down,29,105,mp-568252
2dm-4598,4,CuH2(CO2)2,P2_1/c,0,FALSE,top-down,228,66,mp-643934
2dm-4600,4,TiTlPS5,P-1,1158,FALSE,top-down,0,93,mp-558747
2dm-4603,4,Sr2TiCu2O7,Pmc2_1,0,FALSE,top-down,143,25,mvc-269
2dm-4605,4,SrH4(SO4)3,P-1,5391,FALSE,top-down,4,,mp-757723
2dm-4607,4,MnSbSe2Br,Pmc2_1,115,FALSE,top-down,80,195,mp-567478
2dm-4611,4,Sr2FeSO3,P4/nmm,0,FALSE,top-down,199,53,mvc-3245
2dm-4616,4,Ca2FeClO3,P4/nmm,845,FALSE,top-down,34,33,mp-630511
2dm-4618,4,BaTl(NiO3)2,Pm,0,FALSE,top-down,448,,mvc-370
2dm-4622,4,BaTaCuO5,P4mm,0,FALSE,top-down,212,,mvc-7244
2dm-4623,4,Ba3BPO7,P3m1,18,FALSE,top-down,436,,mp-554479
2dm-4625,4,LiMnCr2O6,Cm,563,FALSE,top-down,181,,mp-850948
2dm-4632,4,Ta2Zn2FeO8,P2/c,2578,FALSE,top-down,98,119,mvc-2645
2dm-4637,4,LiNiPO4,Pmma,0,FALSE,top-down,481,,mp-32324
2dm-4638,4,Ta2Zn2CoO8,P2/c,2705,FALSE,top-down,101,121,mvc-2669
2dm-4639,4,V3Fe3(TeO8)2,P1,1541,FALSE,top-down,140,50,mp-775464
2dm-4641,4,SrTa2Bi2O9,Pmc2_1,2287,FALSE,top-down,100,33,mp-556569
2dm-4643,4,Li4V(TeO4)3,P2,324,FALSE,top-down,226,234,mp-779999
2dm-4646,4,Tl2PAuS4,P2_1/m,1479,FALSE,top-down,8,,mp-9510
2dm-4648,4,LiSnPO4,Pc,0,FALSE,top-down,585,625,mp-755392
2dm-4650,4,Al2Si2H4O9,P1,4481,FALSE,top-down,36,48,mp-721216
2dm-4653,4,SmZnPO,P-3m1,1711,TRUE,top-down,0,123,mp-550820
2dm-4655,4,LiV2OF7,Cm,2087,FALSE,top-down,105,107,mp-764204
2dm-4662,4,CaH6C2O7,P-1,3520,FALSE,top-down,80,74,mp-559469
2dm-4669,4,HgH2NCl,Pmma,2303,TRUE,top-down,167,115,mp-643754
2dm-4670,4,Sr2Cu2BiO7,Pmc2_1,0,FALSE,top-down,152,23,mvc-285
2dm-4673,4,MgGe2WO6,P2_1/c,1539,FALSE,top-down,128,,mvc-8402
2dm-4674,4,Hg3AsSe4Br,P3m1,1831,TRUE,top-down,12,145,mp-567949
2dm-4675,4,CdHgAsBr,Pmma,1383,FALSE,top-down,7,72,mp-569454
2dm-4677,4,NaCdPO4,P2_1/m,2866,FALSE,top-down,127,,mp-6684
2dm-4678,4,Li2Fe2Si2O7,P-1,3408,TRUE,top-down,88,27,mp-762810
2dm-4690,4,MnBiS2Br,P2/m,0,FALSE,top-down,176,258,mp-557805
2dm-4697,4,In2GaBiS6,P2_1/m,589,FALSE,top-down,96,160,mp-556231
2dm-4704,4,NaBH8O7,P-1,4030,TRUE,top-down,49,65,mp-721727
2dm-4705,4,Fe3P2(HO)16,P2/m,2325,FALSE,top-down,50,62,mp-742859
2dm-4706,4,Tl2Ni(CN)4,Pmna,2481,FALSE,top-down,173,94,mp-569704
2dm-4708,4,VAg(PSe3)2,C2,95,FALSE,top-down,12,72,mp-6543
2dm-4725,4,AgCNO,Pmm2,1221,FALSE,top-down,839,124,mp-545730
2dm-4736,4,CoH2SeO4,Pc,2594,FALSE,top-down,30,35,mp-541780
2dm-4737,4,LiCo5O5F,P3m1,0,FALSE,top-down,,325,mp-764225
2dm-4753,4,Hg3AsS4Cl,P3m1,2144,TRUE,top-down,23,147,mp-559355
2dm-4764,4,AgBiSCl2,Pmma,759,FALSE,top-down,109,241,mp-556094
2dm-4766,4,LiVSiO4,P2_1/m,2301,FALSE,top-down,108,105,mp-767447
2dm-4781,4,CuBiSCl2,Pmma,263,FALSE,top-down,174,240,mp-554238
2dm-4802,4,Na2Hf(HO)6,P-31m,3607,FALSE,top-down,48,69,mp-643896
2dm-4805,4,CdBiS2Br,P2/m,849,TRUE,top-down,153,255,mp-561079
2dm-4807,4,Li2MnP2O7,P-42_1m,4213,TRUE,top-down,152,120,mp-853134
2dm-4810,4,MnCSO7,P2_1/m,2,FALSE,top-down,95,45,mp-769958
2dm-4812,4,LiB(HO2)2,P2_1/c,3595,TRUE,top-down,29,48,mp-698205
2dm-4817,4,KV3(SeO6)2,P3,2382,FALSE,top-down,,80,mp-559650
2dm-4823,4,LuH2ClO2,P2_1/m,4268,TRUE,top-down,37,92,mp-976349
2dm-4825,4,SrTa2H2O7,P4/mmm,2224,FALSE,top-down,105,44,mp-990430
2dm-4829,4,Bi2Te2WO10,P2/c,3040,FALSE,top-down,57,135,mp-566831
2dm-4830,4,LiVCuO4,Pmma,0,FALSE,top-down,267,303,mp-764692
2dm-4835,4,LiFePO4,Pmma,2933,TRUE,top-down,312,351,mp-765913
2dm-4837,4,Sr2Mn2GaO7,Pmc2_1,0,FALSE,top-down,211,14,mvc-572
2dm-4843,4,KBi(PSe3)2,P2_1/c,1431,FALSE,top-down,39,,mp-569435
2dm-4852,4,ZnP2(HO)4,Pmma,4640,TRUE,top-down,86,32,mp-697451
2dm-4853,4,LiVBO4,P2_1/m,1267,FALSE,top-down,102,54,mp-770028
2dm-4855,4,FeBiSbS4,Pmc2_1,0,FALSE,top-down,,201,mp-601716
2dm-4860,4,SnPO3F,Pc,3854,TRUE,top-down,0,51,mp-555838
2dm-4862,4,Ca2Cu(BrO)2,P4/mmm,0,FALSE,top-down,0,42,mp-545481
2dm-4866,4,InSb2S4Br,P2_1/m,1489,FALSE,top-down,26,134,mp-559864
2dm-4870,4,Cu3Se2(ClO3)2,C2/m,0,FALSE,top-down,3,42,mp-557136
2dm-4871,4,LiNiPO4,Pmma,2713,FALSE,top-down,338,,mp-761990
2dm-4874,4,Ca3Fe2Cl2O5,P4/mmm,741,FALSE,top-down,65,,mp-566329
2dm-4886,4,LiSO3F,C2/m,6264,TRUE,top-down,0,48,mp-7744
2dm-4887,4,HoH2ClO2,P2_1/m,4420,TRUE,top-down,8,94,mp-976713
2dm-4896,4,Sr2CrSO3,Pmmn,0,FALSE,top-down,224,54,mvc-3234
2dm-4900,4,LiCu2(CO3)2,P1,0,FALSE,top-down,70,53,mp-760546
2dm-4913,4,Hg3AsSe4I,P3m1,1785,TRUE,top-down,9,140,mp-570084
2dm-4914,4,Ag2Bi2S3Cl2,P-1,1562,FALSE,top-down,13,69,mp-559071
2dm-4918,4,SrTiSi2O7,Pmma,3617,FALSE,top-down,72,112,mp-559208
2dm-4920,4,Ba2TlNi2O7,P4/mmm,0,FALSE,top-down,356,24,mvc-2990
2dm-4926,4,Sr2TaCu2O7,Pmc2_1,0,FALSE,top-down,307,21,mvc-309
2dm-4935,4,NaAsH4O5,P2_1/m,3480,FALSE,top-down,107,143,mp-696175
2dm-4936,4,CaB2(HO)8,P-1,4453,FALSE,top-down,79,73,mp-721875
2dm-4941,4,MnSbSe2I,P2/m,73,FALSE,top-down,72,189,mp-570268
2dm-4944,4,MnSbSe2Br,P2/m,0,FALSE,top-down,102,,mp-655834
2dm-4952,4,YbH2ClO2,P2_1/m,0,FALSE,top-down,151,77,mp-979964
2dm-4953,4,MnSbS2Cl,Pmc2_1,212,FALSE,top-down,,204,mp-555844
2dm-4962,4,LiCrSiO4,P2_1/m,3012,FALSE,top-down,113,112,mp-850469
2dm-4969,4,SbTeClO3,Pmn2_1,3220,FALSE,top-down,42,141,mp-559379
2dm-4974,4,SrH4(ClO)2,P2/c,4657,TRUE,top-down,53,91,mp-643026
2dm-4976,4,BiP(PbO2)4,P-1,2943,TRUE,top-down,20,57,mp-581609
2dm-4977,4,Mn3Co2Te3O16,P1,503,FALSE,top-down,96,,mp-774178
2dm-4979,4,Ba2Tl2Co3O10,P1,0,FALSE,top-down,579,,mvc-3030
2dm-4984,4,LiFeSiO4,P2_1/m,2152,FALSE,top-down,131,,mp-762648
2dm-4986,4,MnH2SO4,Pc,4174,FALSE,top-down,51,24,mp-505181
2dm-4992,4,Sr2Cu2SbO7,Pmc2_1,0,FALSE,top-down,291,24,mvc-273
2dm-4996,4,TiZn(GeO3)2,P2_1/c,2273,FALSE,top-down,58,,mvc-8162
2dm-4998,4,TcSO6F,P2_1/c,2826,FALSE,top-down,0,30,mp-561392
2dm-5003,4,LiV3(TeO6)2,P-1,2092,TRUE,top-down,18,62,mp-565939
2dm-5008,4,Tl2Cu3(SeO3)6,P-1,162,FALSE,top-down,16,,mp-558944
2dm-5011,4,Sr2MnSO3,P4/nmm,0,FALSE,top-down,176,55,mvc-3229
2dm-5015,4,SbPb2S2I3,P2_1/c,2030,TRUE,top-down,48,,mp-578882